
     Program PWSCF v.5.0.2 (svn rev. 9656) starts on  3Apr2015 at 20:19:40 

     This program is part of the open-source Quantum ESPRESSO suite
     for quantum simulation of materials; please cite
         "P. Giannozzi et al., J. Phys.:Condens. Matter 21 395502 (2009);
          URL http://www.quantum-espresso.org", 
     in publications or presentations arising from this work. More details at
     http://www.quantum-espresso.org/quote.php

     Parallel version (MPI), running on    12 processors
     R & G space division:  proc/nbgrp/npool/nimage =      12

     Current dimensions of program PWSCF are:
     Max number of different atomic species (ntypx) = 1001:52 p.m. 20/04/2016
     Max number of k-points (npk) =  40000
     Max angular momentum in pseudopotentials (lmaxx) =  3
     Reading input from 01Cun_4.in

     Subspace diagonalization in iterative solution of the eigenvalue problem:
     scalapack distributed-memory algorithm (size of sub-group:  2*  2 procs)

 
     Parallelization info
     --------------------
     sticks:   dense  smooth     PW     G-vecs:    dense   smooth      PW
     Min         664     265     73                44511    11243    1652
     Max         667     266     75                44512    11267    1656
     Sum        7981    3181    885               534137   135043   19837
 

     Title: 
     Cun_4                                                                      


     bravais-lattice index     =            1
     lattice parameter (alat)  =      20.0000  a.u.
     unit-cell volume          =    8000.0000 (a.u.)^3
     number of atoms/cell      =            4
     number of atomic types    =            1
     number of electrons       =        44.00
     number of Kohn-Sham states=           26
     kinetic-energy cutoff     =      25.0000  Ry
     charge density cutoff     =     250.0000  Ry
     convergence threshold     =      1.0E-07
     mixing beta               =       0.6000
     number of iterations used =           16  local-TF  mixing
     Exchange-correlation      =  SLA  PW   PBE  PBE ( 1 4 3 4 0)
     EXX-fraction              =        0.00
     nstep                     =           50


     celldm(1)=  20.000000  celldm(2)=   0.000000  celldm(3)=   0.000000
     celldm(4)=   0.000000  celldm(5)=   0.000000  celldm(6)=   0.000000

     crystal axes: (cart. coord. in units of alat)
               a(1) = (   1.000000   0.000000   0.000000 )  
               a(2) = (   0.000000   1.000000   0.000000 )  
               a(3) = (   0.000000   0.000000   1.000000 )  

     reciprocal axes: (cart. coord. in units 2 pi/alat)
               b(1) = (  1.000000  0.000000  0.000000 )  
               b(2) = (  0.000000  1.000000  0.000000 )  
               b(3) = (  0.000000  0.000000  1.000000 )  


     PseudoPot. # 1 for Cu read from file:
     /home/jmontoya/Cu_Clusters/Pseudo/Cu.pbe-n-van_ak.UPF
     MD5 check sum: f96b10b0f61dc418faf9c97f6ccca034
     Pseudo is Ultrasoft + core correction, Zval = 11.0
     Generated by new atomic code, or converted to UPF format
     Using radial grid of  867 points,  6 beta functions with: 
                l(1) =   0
                l(2) =   0
                l(3) =   1
                l(4) =   1
                l(5) =   2
                l(6) =   2
     Q(r) pseudized with  8 coefficients,  rinner =    1.400   1.400   1.400
                                                       1.400   1.400

     atomic species   valence    mass     pseudopotential
        Cu            11.00    63.54600     Cu( 1.00)

     No symmetry found



   Cartesian axes

     site n.     atom                  positions (alat units)
         1           Cu  tau(   1) = (   0.1300000   0.1300000   0.1300000  )
         2           Cu  tau(   2) = (   0.2699944   0.2407002   0.0975933  )
         3           Cu  tau(   3) = (   0.0465595   0.0028212   0.1951439  )
         4           Cu  tau(   4) = (   0.1956321   0.2216086   0.2602435  )

     number of k points=     8  Methfessel-Paxton smearing, width (Ry)=  0.0000
                       cart. coord. in units 2pi/alat
        k(    1) = (   0.0000000   0.0000000   0.0000000), wk =   0.2500000
        k(    2) = (   0.0000000   0.0000000  -0.5000000), wk =   0.2500000
        k(    3) = (   0.0000000  -0.5000000  -0.5000000), wk =   0.2500000
        k(    4) = (  -0.5000000  -0.5000000  -0.5000000), wk =   0.2500000
        k(    5) = (  -0.5000000   0.0000000   0.0000000), wk =   0.2500000
        k(    6) = (   0.0000000  -0.5000000   0.0000000), wk =   0.2500000
        k(    7) = (  -0.5000000   0.0000000   0.5000000), wk =   0.2500000
        k(    8) = (  -0.5000000   0.5000000   0.0000000), wk =   0.2500000

     Dense  grid:   534137 G-vectors     FFT dimensions: ( 108, 108, 108)

     Smooth grid:   135043 G-vectors     FFT dimensions: (  64,  64,  64)

     Largest allocated arrays     est. size (Mb)     dimensions
        Kohn-Sham Wavefunctions         0.56 Mb     (   1414,   26)
        NL pseudopotentials             1.55 Mb     (   1414,   72)
        Each V/rho on FFT grid          1.60 Mb     ( 104976)
        Each G-vector array             0.34 Mb     (  44512)
        G-vector shells                 0.02 Mb     (   2079)
     Largest temporary arrays     est. size (Mb)     dimensions
        Auxiliary wavefunctions         4.49 Mb     (   1414,  208)
        Each subspace H/S matrix        0.17 Mb     ( 104, 104)
        Each <psi_i|beta_j> matrix      0.03 Mb     (     72,   26)
        Arrays for rho mixing          25.63 Mb     ( 104976,  16)

     Initial potential from superposition of free atoms
     Check: negative starting charge=   -0.000312

     starting charge   43.95270, renormalised to   44.00000

     negative rho (up, down):  0.313E-03 0.000E+00
     Starting wfc are   36 randomized atomic wfcs

     total cpu time spent up to now is        1.8 secs

     Self-consistent Calculation

     iteration #  1     ecut=    25.00 Ry     beta=0.60
     Davidson diagonalization with overlap
     ethr =  1.00E-02,  avg # of iterations =  3.0

     negative rho (up, down):  0.276E-07 0.000E+00

     total cpu time spent up to now is        5.8 secs

     total energy              =    -485.06102753 Ry
     Harris-Foulkes estimate   =    -485.26265195 Ry
     estimated scf accuracy    <       0.94253601 Ry

     iteration #  2     ecut=    25.00 Ry     beta=0.60
     Davidson diagonalization with overlap
     ethr =  2.14E-03,  avg # of iterations =  1.0

     total cpu time spent up to now is        8.5 secs

     total energy              =    -484.89489823 Ry
     Harris-Foulkes estimate   =    -485.08939243 Ry
     estimated scf accuracy    <       0.47620536 Ry

     iteration #  3     ecut=    25.00 Ry     beta=0.60
     Davidson diagonalization with overlap
     ethr =  1.08E-03,  avg # of iterations =  2.0

     total cpu time spent up to now is       11.4 secs

     total energy              =    -484.94629558 Ry
     Harris-Foulkes estimate   =    -484.95934157 Ry
     estimated scf accuracy    <       0.06931854 Ry

     iteration #  4     ecut=    25.00 Ry     beta=0.60
     Davidson diagonalization with overlap
     ethr =  1.58E-04,  avg # of iterations =  2.4

     total cpu time spent up to now is       14.2 secs

     total energy              =    -484.93590699 Ry
     Harris-Foulkes estimate   =    -484.95039481 Ry
     estimated scf accuracy    <       0.04648740 Ry

     iteration #  5     ecut=    25.00 Ry     beta=0.60
     Davidson diagonalization with overlap
     ethr =  1.06E-04,  avg # of iterations =  2.0

     negative rho (up, down):  0.110E-03 0.000E+00

     total cpu time spent up to now is       17.5 secs

     total energy              =    -484.93132799 Ry
     Harris-Foulkes estimate   =    -484.93923635 Ry
     estimated scf accuracy    <       0.02025779 Ry

     iteration #  6     ecut=    25.00 Ry     beta=0.60
     Davidson diagonalization with overlap
     ethr =  4.60E-05,  avg # of iterations =  5.9

     negative rho (up, down):  0.163E-02 0.000E+00

     total cpu time spent up to now is       21.8 secs

     total energy              =    -484.93222643 Ry
     Harris-Foulkes estimate   =    -484.93294469 Ry
     estimated scf accuracy    <       0.00615083 Ry

     iteration #  7     ecut=    25.00 Ry     beta=0.60
     Davidson diagonalization with overlap
     ethr =  1.40E-05,  avg # of iterations =  2.6

     negative rho (up, down):  0.758E-02 0.000E+00

     total cpu time spent up to now is       25.9 secs

     total energy              =    -484.93394369 Ry
     Harris-Foulkes estimate   =    -484.93280113 Ry
     estimated scf accuracy    <       0.00202615 Ry

     iteration #  8     ecut=    25.00 Ry     beta=0.60
     Davidson diagonalization with overlap
     ethr =  4.60E-06,  avg # of iterations =  4.8

     negative rho (up, down):  0.466E-02 0.000E+00

     total cpu time spent up to now is       30.3 secs

     total energy              =    -484.93439979 Ry
     Harris-Foulkes estimate   =    -484.93418009 Ry
     estimated scf accuracy    <       0.00031334 Ry

     iteration #  9     ecut=    25.00 Ry     beta=0.60
     Davidson diagonalization with overlap
     ethr =  7.12E-07,  avg # of iterations =  6.0

     negative rho (up, down):  0.698E-03 0.000E+00

     total cpu time spent up to now is       35.0 secs

     total energy              =    -484.93460637 Ry
     Harris-Foulkes estimate   =    -484.93444289 Ry
     estimated scf accuracy    <       0.00011691 Ry

     iteration # 10     ecut=    25.00 Ry     beta=0.60
     Davidson diagonalization with overlap
     ethr =  2.66E-07,  avg # of iterations =  5.8

     negative rho (up, down):  0.778E-03 0.000E+00

     total cpu time spent up to now is       40.1 secs

     total energy              =    -484.93467678 Ry
     Harris-Foulkes estimate   =    -484.93464461 Ry
     estimated scf accuracy    <       0.00005826 Ry

     iteration # 11     ecut=    25.00 Ry     beta=0.60
     Davidson diagonalization with overlap
     ethr =  1.32E-07,  avg # of iterations =  2.2

     negative rho (up, down):  0.278E-03 0.000E+00

     total cpu time spent up to now is       44.5 secs

     total energy              =    -484.93469162 Ry
     Harris-Foulkes estimate   =    -484.93468551 Ry
     estimated scf accuracy    <       0.00000208 Ry

     iteration # 12     ecut=    25.00 Ry     beta=0.60
     Davidson diagonalization with overlap
     ethr =  4.73E-09,  avg # of iterations =  3.0

     negative rho (up, down):  0.296E-03 0.000E+00

     total cpu time spent up to now is       48.8 secs

     total energy              =    -484.93469288 Ry
     Harris-Foulkes estimate   =    -484.93469267 Ry
     estimated scf accuracy    <       0.00000077 Ry

     iteration # 13     ecut=    25.00 Ry     beta=0.60
     Davidson diagonalization with overlap
     ethr =  1.75E-09,  avg # of iterations =  2.0

     negative rho (up, down):  0.301E-03 0.000E+00

     total cpu time spent up to now is       51.5 secs

     End of self-consistent calculation

          k = 0.0000 0.0000 0.0000 ( 16879 PWs)   bands (ev):

    -9.2832  -8.2558  -7.8631  -7.7073  -7.2341  -7.0026  -6.4125  -6.2504
    -5.9989  -5.5475  -5.4593  -5.0511  -4.9701  -4.9254  -4.7573  -4.6360
    -4.5585  -4.5079  -4.3309  -4.0794  -3.9211  -3.6369  -2.8082  -1.7035
    -1.3258  -0.1516

          k = 0.0000 0.0000-0.5000 ( 16896 PWs)   bands (ev):

    -9.2832  -8.2558  -7.8632  -7.7073  -7.2341  -7.0026  -6.4125  -6.2504
    -5.9989  -5.5475  -5.4592  -5.0511  -4.9700  -4.9254  -4.7573  -4.6359
    -4.5584  -4.5079  -4.3306  -4.0794  -3.9210  -3.6369  -2.8256  -1.7008
    -1.3114  -0.1826

          k = 0.0000-0.5000-0.5000 ( 16844 PWs)   bands (ev):

    -9.2831  -8.2558  -7.8631  -7.7072  -7.2340  -7.0025  -6.4123  -6.2504
    -5.9987  -5.5473  -5.4592  -5.0512  -4.9701  -4.9253  -4.7573  -4.6360
    -4.5585  -4.5081  -4.3321  -4.0794  -3.9228  -3.6372  -2.8248  -1.7172
    -1.2697  -0.2251

          k =-0.5000-0.5000-0.5000 ( 16944 PWs)   bands (ev):

    -9.2832  -8.2558  -7.8632  -7.7072  -7.2340  -7.0026  -6.4122  -6.2504
    -5.9987  -5.5474  -5.4592  -5.0513  -4.9702  -4.9254  -4.7574  -4.6360
    -4.5585  -4.5082  -4.3329  -4.0799  -3.9234  -3.6373  -2.8230  -1.7357
    -1.2616  -0.2374

          k =-0.5000 0.0000 0.0000 ( 16896 PWs)   bands (ev):

    -9.2832  -8.2558  -7.8632  -7.7073  -7.2341  -7.0026  -6.4124  -6.2504
    -5.9989  -5.5474  -5.4592  -5.0511  -4.9701  -4.9254  -4.7574  -4.6360
    -4.5585  -4.5080  -4.3317  -4.0798  -3.9219  -3.6371  -2.8067  -1.7212
    -1.3052  -0.1610

          k = 0.0000-0.5000 0.0000 ( 16896 PWs)   bands (ev):

    -9.2832  -8.2558  -7.8632  -7.7073  -7.2341  -7.0026  -6.4124  -6.2504
    -5.9988  -5.5474  -5.4593  -5.0512  -4.9702  -4.9253  -4.7573  -4.6360
    -4.5585  -4.5081  -4.3324  -4.0794  -3.9229  -3.6372  -2.8079  -1.7199
    -1.2805  -0.1615

          k =-0.5000 0.0000 0.5000 ( 16844 PWs)   bands (ev):

    -9.2831  -8.2558  -7.8631  -7.7072  -7.2340  -7.0025  -6.4123  -6.2504
    -5.9988  -5.5474  -5.4592  -5.0511  -4.9700  -4.9254  -4.7573  -4.6360
    -4.5584  -4.5080  -4.3314  -4.0798  -3.9217  -3.6370  -2.8236  -1.7180
    -1.2942  -0.2191

          k =-0.5000 0.5000 0.0000 ( 16844 PWs)   bands (ev):

    -9.2831  -8.2558  -7.8631  -7.7072  -7.2341  -7.0025  -6.4122  -6.2503
    -5.9987  -5.5473  -5.4592  -5.0513  -4.9702  -4.9253  -4.7574  -4.6360
    -4.5584  -4.5082  -4.3331  -4.0798  -3.9235  -3.6373  -2.8065  -1.7391
    -1.2704  -0.1668

     the Fermi energy is    -3.5759 ev

!    total energy              =    -484.93469294 Ry
     Harris-Foulkes estimate   =    -484.93469299 Ry
     estimated scf accuracy    <       0.00000002 Ry

     The total energy is the sum of the following terms:

     one-electron contribution =    -892.00343585 Ry
     hartree contribution      =     488.43716017 Ry
     xc contribution           =    -171.61760451 Ry
     ewald contribution        =      90.24918724 Ry
     smearing contrib. (-TS)   =       0.00000000 Ry

     charge density inside the Wigner-Seitz cell:   44.00000000

     reference position (x0):         3.21092998    2.97565014    3.41490339 bohr

     Dipole moments (with respect to x0):
     Elect   0.3118   0.2526   0.3883 au (Ha),   0.7924   0.6420   0.9869 Debye
     Ionic  -0.0000   0.0000   0.0000 au (Ha),  -0.0000   0.0000   0.0000 Debye
     Total   0.3118   0.2526   0.3883 au (Ha),   0.7924   0.6420   0.9869 Debye

     Electrons quadrupole moment       -439.84985540 a.u. (Ha)
          Ions quadrupole moment        343.91527876 a.u. (Ha)
         Total quadrupole moment        -95.93457665 a.u. (Ha)

     *********    MAKOV-PAYNE CORRECTION    *********

     Makov-Payne correction with Madelung constant =   2.8373

     Makov-Payne correction     0.00000000 Ry =  0.000 eV (1st order, 1/a0)
                                0.00016323 Ry =  0.002 eV (2nd order, 1/a0^3)
                                0.00016323 Ry =  0.002 eV (total)

!    Total+Makov-Payne energy  =    -484.93452971 Ry

     convergence has been achieved in  13 iterations

     Forces acting on atoms (Ry/au):


     negative rho (up, down):  0.301E-03 0.000E+00
     atom    1 type  1   force =    -0.08193202    0.02415792   -0.41632595
     atom    2 type  1   force =     0.29748651    0.18726472   -0.26750165
     atom    3 type  1   force =    -0.25258933   -0.37643767    0.19252450
     atom    4 type  1   force =     0.03703484    0.16501503    0.49130309

     Total force =     0.841235     Total SCF correction =     0.000586

     BFGS Geometry Optimization

     number of scf cycles    =   1
     number of bfgs steps    =   0

     energy   new            =    -484.9346929427 Ry

     new trust radius        =       0.3000000000 bohr
     new conv_thr            =       0.0000001000 Ry


ATOMIC_POSITIONS (bohr)
Cu       2.600000040   2.600000040   2.600000040    0   0   0
Cu       5.571648772   4.922125318   1.797418969
Cu       0.785351474  -0.160919872   4.014035615
Cu       3.934024836   4.527447005   5.488533638


     Check: negative starting charge=   -0.000312
     NEW-OLD atomic charge density approx. for the potential
     Check: negative starting charge=   -0.000290

     negative rho (up, down):  0.594E-03 0.000E+00

     total cpu time spent up to now is       53.8 secs

     Self-consistent Calculation

     iteration #  1     ecut=    25.00 Ry     beta=0.60
     Davidson diagonalization with overlap
     ethr =  1.00E-06,  avg # of iterations =  8.1

     negative rho (up, down):  0.328E-03 0.000E+00

     total cpu time spent up to now is       61.8 secs

     total energy              =    -485.19999782 Ry
     Harris-Foulkes estimate   =    -485.22080243 Ry
     estimated scf accuracy    <       0.06985507 Ry

     iteration #  2     ecut=    25.00 Ry     beta=0.60
     Davidson diagonalization with overlap
     ethr =  1.59E-04,  avg # of iterations =  2.0

     negative rho (up, down):  0.203E-03 0.000E+00

     total cpu time spent up to now is       66.1 secs

     total energy              =    -485.20875033 Ry
     Harris-Foulkes estimate   =    -485.21297342 Ry
     estimated scf accuracy    <       0.01383630 Ry

     iteration #  3     ecut=    25.00 Ry     beta=0.60
     Davidson diagonalization with overlap
     ethr =  3.14E-05,  avg # of iterations =  2.0

     negative rho (up, down):  0.155E-03 0.000E+00

     total cpu time spent up to now is       70.9 secs

     total energy              =    -485.21038759 Ry
     Harris-Foulkes estimate   =    -485.21088916 Ry
     estimated scf accuracy    <       0.00142036 Ry

     iteration #  4     ecut=    25.00 Ry     beta=0.60
     Davidson diagonalization with overlap
     ethr =  3.23E-06,  avg # of iterations =  3.0

     negative rho (up, down):  0.162E-03 0.000E+00

     total cpu time spent up to now is       75.6 secs

     total energy              =    -485.21066625 Ry
     Harris-Foulkes estimate   =    -485.21071697 Ry
     estimated scf accuracy    <       0.00026544 Ry

     iteration #  5     ecut=    25.00 Ry     beta=0.60
     Davidson diagonalization with overlap
     ethr =  6.03E-07,  avg # of iterations =  2.8

     negative rho (up, down):  0.177E-03 0.000E+00

     total cpu time spent up to now is       79.5 secs

     total energy              =    -485.21068712 Ry
     Harris-Foulkes estimate   =    -485.21070144 Ry
     estimated scf accuracy    <       0.00005713 Ry

     iteration #  6     ecut=    25.00 Ry     beta=0.60
     Davidson diagonalization with overlap
     ethr =  1.30E-07,  avg # of iterations =  2.0

     negative rho (up, down):  0.197E-03 0.000E+00

     total cpu time spent up to now is       83.8 secs

     total energy              =    -485.21069046 Ry
     Harris-Foulkes estimate   =    -485.21069320 Ry
     estimated scf accuracy    <       0.00001202 Ry

     iteration #  7     ecut=    25.00 Ry     beta=0.60
     Davidson diagonalization with overlap
     ethr =  2.73E-08,  avg # of iterations =  2.2

     negative rho (up, down):  0.216E-03 0.000E+00

     total cpu time spent up to now is       88.2 secs

     total energy              =    -485.21069235 Ry
     Harris-Foulkes estimate   =    -485.21069259 Ry
     estimated scf accuracy    <       0.00000189 Ry

     iteration #  8     ecut=    25.00 Ry     beta=0.60
     Davidson diagonalization with overlap
     ethr =  4.29E-09,  avg # of iterations =  2.5

     negative rho (up, down):  0.242E-03 0.000E+00

     total cpu time spent up to now is       92.8 secs

     total energy              =    -485.21069273 Ry
     Harris-Foulkes estimate   =    -485.21069279 Ry
     estimated scf accuracy    <       0.00000056 Ry

     iteration #  9     ecut=    25.00 Ry     beta=0.60
     Davidson diagonalization with overlap
     ethr =  1.26E-09,  avg # of iterations =  2.0

     negative rho (up, down):  0.270E-03 0.000E+00

     total cpu time spent up to now is       95.3 secs

     End of self-consistent calculation

          k = 0.0000 0.0000 0.0000 ( 16879 PWs)   bands (ev):

    -8.3509  -7.3480  -6.9774  -6.8507  -6.3868  -6.2512  -5.7994  -5.6134
    -5.4413  -5.1870  -5.1523  -4.9008  -4.8263  -4.7596  -4.6789  -4.6291
    -4.4106  -4.3905  -4.2378  -4.0873  -3.9392  -3.8429  -2.8960  -1.6651
    -1.3087  -0.2825

          k = 0.0000 0.0000-0.5000 ( 16896 PWs)   bands (ev):

    -8.3509  -7.3480  -6.9774  -6.8507  -6.3867  -6.2511  -5.7994  -5.6134
    -5.4413  -5.1871  -5.1523  -4.9007  -4.8263  -4.7596  -4.6788  -4.6291
    -4.4106  -4.3905  -4.2376  -4.0873  -3.9391  -3.8429  -2.9152  -1.6590
    -1.2970  -0.2639

          k = 0.0000-0.5000-0.5000 ( 16844 PWs)   bands (ev):

    -8.3508  -7.3480  -6.9773  -6.8507  -6.3867  -6.2511  -5.7992  -5.6135
    -5.4411  -5.1870  -5.1523  -4.9008  -4.8263  -4.7595  -4.6788  -4.6292
    -4.4106  -4.3905  -4.2389  -4.0874  -3.9415  -3.8433  -2.9148  -1.6601
    -1.2785  -0.3005

          k =-0.5000-0.5000-0.5000 ( 16944 PWs)   bands (ev):

    -8.3507  -7.3480  -6.9773  -6.8507  -6.3867  -6.2511  -5.7990  -5.6135
    -5.4411  -5.1870  -5.1523  -4.9008  -4.8263  -4.7596  -4.6789  -4.6293
    -4.4106  -4.3906  -4.2396  -4.0879  -3.9424  -3.8435  -2.9129  -1.6714
    -1.2864  -0.3099

          k =-0.5000 0.0000 0.0000 ( 16896 PWs)   bands (ev):

    -8.3508  -7.3480  -6.9774  -6.8507  -6.3868  -6.2512  -5.7992  -5.6135
    -5.4413  -5.1870  -5.1522  -4.9008  -4.8262  -4.7596  -4.6789  -4.6292
    -4.4106  -4.3905  -4.2385  -4.0878  -3.9404  -3.8432  -2.8944  -1.6676
    -1.3136  -0.2715

          k = 0.0000-0.5000 0.0000 ( 16896 PWs)   bands (ev):

    -8.3508  -7.3480  -6.9774  -6.8507  -6.3868  -6.2512  -5.7992  -5.6135
    -5.4411  -5.1870  -5.1524  -4.9009  -4.8263  -4.7596  -4.6789  -4.6292
    -4.4106  -4.3906  -4.2392  -4.0874  -3.9417  -3.8434  -2.8960  -1.6643
    -1.2895  -0.2837

          k =-0.5000 0.0000 0.5000 ( 16844 PWs)   bands (ev):

    -8.3508  -7.3480  -6.9773  -6.8507  -6.3867  -6.2511  -5.7992  -5.6134
    -5.4413  -5.1871  -5.1522  -4.9007  -4.8262  -4.7596  -4.6789  -4.6291
    -4.4105  -4.3905  -4.2383  -4.0878  -3.9402  -3.8431  -2.9132  -1.6627
    -1.3031  -0.2954

          k =-0.5000 0.5000 0.0000 ( 16844 PWs)   bands (ev):

    -8.3508  -7.3480  -6.9773  -6.8507  -6.3867  -6.2511  -5.7990  -5.6135
    -5.4411  -5.1870  -5.1523  -4.9009  -4.8263  -4.7596  -4.6789  -4.6293
    -4.4106  -4.3906  -4.2399  -4.0879  -3.9426  -3.8435  -2.8946  -1.6757
    -1.2962  -0.2697

     the Fermi energy is    -3.2965 ev

!    total energy              =    -485.21069264 Ry

     Harris-Foulkes estimate   =    -485.21069277 Ry
     estimated scf accuracy    <       0.00000009 Ry

     The total energy is the sum of the following terms:

     one-electron contribution =    -840.53272858 Ry
     hartree contribution      =     463.10228697 Ry
     xc contribution           =    -171.27528447 Ry
     ewald contribution        =      63.49503344 Ry
     smearing contrib. (-TS)   =       0.00000000 Ry

     charge density inside the Wigner-Seitz cell:   44.00000000

     reference position (x0):         3.22275628    2.97216312    3.47499707 bohr

     Dipole moments (with respect to x0):
     Elect   0.3735   0.3438   0.3798 au (Ha),   0.9493   0.8738   0.9654 Debye
     Ionic  -0.0000  -0.0000   0.0000 au (Ha),  -0.0000  -0.0000   0.0000 Debye
     Total   0.3735   0.3438   0.3798 au (Ha),   0.9493   0.8738   0.9654 Debye

     Electrons quadrupole moment       -496.03906614 a.u. (Ha)
          Ions quadrupole moment        400.97993651 a.u. (Ha)
         Total quadrupole moment        -95.05912963 a.u. (Ha)

     *********    MAKOV-PAYNE CORRECTION    *********

     Makov-Payne correction with Madelung constant =   2.8373

     Makov-Payne correction     0.00000000 Ry =  0.000 eV (1st order, 1/a0)
                                0.00021046 Ry =  0.003 eV (2nd order, 1/a0^3)
                                0.00021046 Ry =  0.003 eV (total)

!    Total+Makov-Payne energy  =    -485.21048218 Ry

     convergence has been achieved in   9 iterations

     Forces acting on atoms (Ry/au):


     negative rho (up, down):  0.270E-03 0.000E+00
     atom    1 type  1   force =    -0.04194036    0.00816176   -0.19714133
     atom    2 type  1   force =     0.12694917    0.09436203   -0.07392677
     atom    3 type  1   force =    -0.12517394   -0.18234681    0.09676986
     atom    4 type  1   force =     0.04016513    0.07982302    0.17429824

     Total force =     0.356558     Total SCF correction =     0.000477

     number of scf cycles    =   2
     number of bfgs steps    =   1

     energy   old            =    -484.9346929427 Ry
     energy   new            =    -485.2106926377 Ry

     CASE: energy  _new < energy  _old

     new trust radius        =       0.2746577370 bohr
     new conv_thr            =       0.0000001000 Ry


ATOMIC_POSITIONS (bohr)
Cu       2.600000040   2.600000040   2.600000040    0   0   0
Cu       5.705218317   5.030947225   1.746194029
Cu       0.642172945  -0.367106091   4.125498722
Cu       3.992367316   4.617641585   5.648577273


     Check: negative starting charge=   -0.000290
     NEW-OLD atomic charge density approx. for the potential
     Check: negative starting charge=   -0.000270

     negative rho (up, down):  0.505E-03 0.000E+00

     total cpu time spent up to now is       97.6 secs

     Self-consistent Calculation

     iteration #  1     ecut=    25.00 Ry     beta=0.60
     Davidson diagonalization with overlap
     ethr =  1.00E-06,  avg # of iterations =  7.2

     negative rho (up, down):  0.202E-03 0.000E+00

     total cpu time spent up to now is      105.4 secs

     total energy              =    -485.30128528 Ry
     Harris-Foulkes estimate   =    -485.31059671 Ry
     estimated scf accuracy    <       0.03408420 Ry

     iteration #  2     ecut=    25.00 Ry     beta=0.60
     Davidson diagonalization with overlap
     ethr =  7.75E-05,  avg # of iterations =  2.0

     negative rho (up, down):  0.237E-03 0.000E+00

     total cpu time spent up to now is      110.3 secs

     total energy              =    -485.30423442 Ry
     Harris-Foulkes estimate   =    -485.30590564 Ry
     estimated scf accuracy    <       0.00501240 Ry

     iteration #  3     ecut=    25.00 Ry     beta=0.60
     Davidson diagonalization with overlap
     ethr =  1.14E-05,  avg # of iterations =  2.0

     negative rho (up, down):  0.335E-03 0.000E+00

     total cpu time spent up to now is      114.9 secs

     total energy              =    -485.30498489 Ry
     Harris-Foulkes estimate   =    -485.30525583 Ry
     estimated scf accuracy    <       0.00087660 Ry

     iteration #  4     ecut=    25.00 Ry     beta=0.60
     Davidson diagonalization with overlap
     ethr =  1.99E-06,  avg # of iterations =  3.0

     negative rho (up, down):  0.340E-03 0.000E+00

     total cpu time spent up to now is      119.6 secs

     total energy              =    -485.30507931 Ry
     Harris-Foulkes estimate   =    -485.30510009 Ry
     estimated scf accuracy    <       0.00009416 Ry

     iteration #  5     ecut=    25.00 Ry     beta=0.60
     Davidson diagonalization with overlap
     ethr =  2.14E-07,  avg # of iterations =  3.0

     negative rho (up, down):  0.332E-03 0.000E+00

     total cpu time spent up to now is      124.4 secs

     total energy              =    -485.30510175 Ry
     Harris-Foulkes estimate   =    -485.30510833 Ry
     estimated scf accuracy    <       0.00002139 Ry

     iteration #  6     ecut=    25.00 Ry     beta=0.60
     Davidson diagonalization with overlap
     ethr =  4.86E-08,  avg # of iterations =  2.0

     negative rho (up, down):  0.317E-03 0.000E+00

     total cpu time spent up to now is      129.2 secs

     total energy              =    -485.30510136 Ry
     Harris-Foulkes estimate   =    -485.30510351 Ry
     estimated scf accuracy    <       0.00000637 Ry

     iteration #  7     ecut=    25.00 Ry     beta=0.60
     Davidson diagonalization with overlap
     ethr =  1.45E-08,  avg # of iterations =  3.0

     negative rho (up, down):  0.315E-03 0.000E+00

     total cpu time spent up to now is      134.2 secs

     total energy              =    -485.30510298 Ry
     Harris-Foulkes estimate   =    -485.30510340 Ry
     estimated scf accuracy    <       0.00000164 Ry

     iteration #  8     ecut=    25.00 Ry     beta=0.60
     Davidson diagonalization with overlap
     ethr =  3.73E-09,  avg # of iterations =  1.5

     negative rho (up, down):  0.306E-03 0.000E+00

     total cpu time spent up to now is      138.6 secs

     total energy              =    -485.30510296 Ry
     Harris-Foulkes estimate   =    -485.30510309 Ry
     estimated scf accuracy    <       0.00000054 Ry

     iteration #  9     ecut=    25.00 Ry     beta=0.60
     Davidson diagonalization with overlap
     ethr =  1.23E-09,  avg # of iterations =  3.0

     negative rho (up, down):  0.288E-03 0.000E+00

     total cpu time spent up to now is      143.6 secs

     total energy              =    -485.30510314 Ry
     Harris-Foulkes estimate   =    -485.30510310 Ry
     estimated scf accuracy    <       0.00000019 Ry

     iteration # 10     ecut=    25.00 Ry     beta=0.60
     Davidson diagonalization with overlap
     ethr =  4.36E-10,  avg # of iterations =  2.0

     negative rho (up, down):  0.252E-03 0.000E+00

     total cpu time spent up to now is      146.2 secs

     End of self-consistent calculation

          k = 0.0000 0.0000 0.0000 ( 16879 PWs)   bands (ev):

    -7.8818  -6.7882  -6.4951  -6.3461  -6.0038  -5.8605  -5.4934  -5.3621
    -5.1956  -5.0013  -4.9731  -4.8305  -4.7603  -4.7045  -4.6408  -4.5891
    -4.2552  -4.2503  -4.2043  -4.0804  -3.9531  -3.9278  -2.9434  -1.7331
    -1.2627  -0.3608

          k = 0.0000 0.0000-0.5000 ( 16896 PWs)   bands (ev):

    -7.8817  -6.7882  -6.4951  -6.3461  -6.0036  -5.8604  -5.4934  -5.3621
    -5.1956  -5.0013  -4.9730  -4.8304  -4.7603  -4.7045  -4.6408  -4.5892
    -4.2551  -4.2503  -4.2041  -4.0804  -3.9530  -3.9275  -2.9637  -1.7257
    -1.2536  -0.2995

          k = 0.0000-0.5000-0.5000 ( 16844 PWs)   bands (ev):

    -7.8815  -6.7882  -6.4950  -6.3460  -6.0036  -5.8604  -5.4931  -5.3621
    -5.1954  -5.0013  -4.9730  -4.8304  -4.7603  -4.7045  -4.6408  -4.5894
    -4.2553  -4.2502  -4.2050  -4.0803  -3.9529  -3.9313  -2.9635  -1.7135
    -1.2548  -0.3358

          k =-0.5000-0.5000-0.5000 ( 16944 PWs)   bands (ev):

    -7.8815  -6.7882  -6.4950  -6.3461  -6.0036  -5.8604  -5.4929  -5.3621
    -5.1955  -5.0014  -4.9729  -4.8304  -4.7603  -4.7046  -4.6408  -4.5896
    -4.2553  -4.2503  -4.2055  -4.0808  -3.9529  -3.9330  -2.9616  -1.7169
    -1.2779  -0.3422

          k =-0.5000 0.0000 0.0000 ( 16896 PWs)   bands (ev):

    -7.8817  -6.7882  -6.4951  -6.3461  -6.0038  -5.8604  -5.4932  -5.3621
    -5.1957  -5.0013  -4.9730  -4.8305  -4.7602  -4.7046  -4.6408  -4.5893
    -4.2552  -4.2503  -4.2048  -4.0808  -3.9530  -3.9298  -2.9418  -1.7247
    -1.2877  -0.3436

          k = 0.0000-0.5000 0.0000 ( 16896 PWs)   bands (ev):

    -7.8816  -6.7882  -6.4950  -6.3461  -6.0038  -5.8605  -5.4932  -5.3621
    -5.1955  -5.0013  -4.9731  -4.8306  -4.7604  -4.7045  -4.6408  -4.5894
    -4.2553  -4.2503  -4.2053  -4.0803  -3.9529  -3.9316  -2.9437  -1.7183
    -1.2649  -0.3624

          k =-0.5000 0.0000 0.5000 ( 16844 PWs)   bands (ev):

    -7.8816  -6.7882  -6.4950  -6.3461  -6.0036  -5.8604  -5.4931  -5.3620
    -5.1956  -5.0013  -4.9729  -4.8304  -4.7602  -4.7046  -4.6408  -4.5893
    -4.2551  -4.2503  -4.2045  -4.0808  -3.9529  -3.9295  -2.9617  -1.7192
    -1.2783  -0.3283

          k =-0.5000 0.5000 0.0000 ( 16844 PWs)   bands (ev):

    -7.8816  -6.7882  -6.4950  -6.3461  -6.0037  -5.8604  -5.4929  -5.3621
    -5.1955  -5.0013  -4.9730  -4.8305  -4.7603  -4.7046  -4.6408  -4.5896
    -4.2552  -4.2503  -4.2057  -4.0807  -3.9528  -3.9333  -2.9422  -1.7214
    -1.2877  -0.3410

     the Fermi energy is    -3.1428 ev

!    total energy              =    -485.30510327 Ry
     Harris-Foulkes estimate   =    -485.30510316 Ry
     estimated scf accuracy    <       0.00000003 Ry

     The total energy is the sum of the following terms:

     one-electron contribution =    -807.14902609 Ry
     hartree contribution      =     446.63273995 Ry
     xc contribution           =    -171.11996175 Ry
     ewald contribution        =      46.33114462 Ry
     smearing contrib. (-TS)   =       0.00000000 Ry

     charge density inside the Wigner-Seitz cell:   44.00000000

     reference position (x0):         3.23493965    2.97037069    3.53006752 bohr

     Dipole moments (with respect to x0):
     Elect   0.4289   0.4254   0.3567 au (Ha),   1.0901   1.0811   0.9066 Debye
     Ionic  -0.0000   0.0000  -0.0000 au (Ha),  -0.0000   0.0000  -0.0000 Debye
     Total   0.4289   0.4254   0.3567 au (Ha),   1.0901   1.0811   0.9066 Debye

     Electrons quadrupole moment       -544.87488116 a.u. (Ha)
          Ions quadrupole moment        450.19497206 a.u. (Ha)
         Total quadrupole moment        -94.67990910 a.u. (Ha)

     *********    MAKOV-PAYNE CORRECTION    *********

     Makov-Payne correction with Madelung constant =   2.8373

     Makov-Payne correction     0.00000000 Ry =  0.000 eV (1st order, 1/a0)
                                0.00025766 Ry =  0.004 eV (2nd order, 1/a0^3)
                                0.00025766 Ry =  0.004 eV (total)

!    Total+Makov-Payne energy  =    -485.30484561 Ry

     convergence has been achieved in  10 iterations

     Forces acting on atoms (Ry/au):


     negative rho (up, down):  0.252E-03 0.000E+00
     atom    1 type  1   force =    -0.03778945   -0.02131290   -0.09268776
     atom    2 type  1   force =     0.06391048    0.05401318   -0.02318670
     atom    3 type  1   force =    -0.05388926   -0.07438053    0.04221384
     atom    4 type  1   force =     0.02776824    0.04168025    0.07366062

     Total force =     0.160288     Total SCF correction =     0.000851

     number of scf cycles    =   3
     number of bfgs steps    =   2

     energy   old            =    -485.2106926377 Ry
     energy   new            =    -485.3051032743 Ry

     CASE: energy  _new < energy  _old

     new trust radius        =       0.2150519759 bohr
     new conv_thr            =       0.0000001000 Ry


ATOMIC_POSITIONS (bohr)
Cu       2.600000040   2.600000040   2.600000040    0   0   0
Cu       5.829172983   5.142487592   1.720611023
Cu       0.527391054  -0.524929756   4.215854469
Cu       4.058082731   4.703234845   5.774617818


     Check: negative starting charge=   -0.000270
     NEW-OLD atomic charge density approx. for the potential
     Check: negative starting charge=   -0.000260

     negative rho (up, down):  0.446E-03 0.000E+00

     total cpu time spent up to now is      148.4 secs

     Self-consistent Calculation

     iteration #  1     ecut=    25.00 Ry     beta=0.60
     Davidson diagonalization with overlap
     ethr =  1.00E-06,  avg # of iterations =  6.8

     negative rho (up, down):  0.190E-03 0.000E+00

     total cpu time spent up to now is      156.3 secs

     total energy              =    -485.33728937 Ry
     Harris-Foulkes estimate   =    -485.34258330 Ry
     estimated scf accuracy    <       0.02006213 Ry

     iteration #  2     ecut=    25.00 Ry     beta=0.60
     Davidson diagonalization with overlap
     ethr =  4.56E-05,  avg # of iterations =  2.0

     negative rho (up, down):  0.270E-03 0.000E+00

     total cpu time spent up to now is      160.2 secs

     total energy              =    -485.33856545 Ry
     Harris-Foulkes estimate   =    -485.33956869 Ry
     estimated scf accuracy    <       0.00303133 Ry

     iteration #  3     ecut=    25.00 Ry     beta=0.60
     Davidson diagonalization with overlap
     ethr =  6.89E-06,  avg # of iterations =  2.0

     negative rho (up, down):  0.397E-03 0.000E+00

     total cpu time spent up to now is      165.4 secs

     total energy              =    -485.33900500 Ry
     Harris-Foulkes estimate   =    -485.33918313 Ry
     estimated scf accuracy    <       0.00058356 Ry

     iteration #  4     ecut=    25.00 Ry     beta=0.60
     Davidson diagonalization with overlap
     ethr =  1.33E-06,  avg # of iterations =  2.9

     negative rho (up, down):  0.387E-03 0.000E+00

     total cpu time spent up to now is      170.8 secs

     total energy              =    -485.33909980 Ry
     Harris-Foulkes estimate   =    -485.33910618 Ry
     estimated scf accuracy    <       0.00003118 Ry

     iteration #  5     ecut=    25.00 Ry     beta=0.60
     Davidson diagonalization with overlap
     ethr =  7.09E-08,  avg # of iterations =  3.0

     negative rho (up, down):  0.378E-03 0.000E+00

     total cpu time spent up to now is      176.1 secs

     total energy              =    -485.33910551 Ry
     Harris-Foulkes estimate   =    -485.33910896 Ry
     estimated scf accuracy    <       0.00001149 Ry

     iteration #  6     ecut=    25.00 Ry     beta=0.60
     Davidson diagonalization with overlap
     ethr =  2.61E-08,  avg # of iterations =  1.9

     negative rho (up, down):  0.352E-03 0.000E+00

     total cpu time spent up to now is      180.7 secs

     total energy              =    -485.33910590 Ry
     Harris-Foulkes estimate   =    -485.33910638 Ry
     estimated scf accuracy    <       0.00000235 Ry

     iteration #  7     ecut=    25.00 Ry     beta=0.60
     Davidson diagonalization with overlap
     ethr =  5.33E-09,  avg # of iterations =  3.0

     negative rho (up, down):  0.337E-03 0.000E+00

     total cpu time spent up to now is      185.5 secs

     total energy              =    -485.33910647 Ry
     Harris-Foulkes estimate   =    -485.33910657 Ry
     estimated scf accuracy    <       0.00000061 Ry

     iteration #  8     ecut=    25.00 Ry     beta=0.60
     Davidson diagonalization with overlap
     ethr =  1.40E-09,  avg # of iterations =  2.0

     negative rho (up, down):  0.301E-03 0.000E+00

     total cpu time spent up to now is      189.3 secs

     total energy              =    -485.33910664 Ry
     Harris-Foulkes estimate   =    -485.33910652 Ry
     estimated scf accuracy    <       0.00000025 Ry

     iteration #  9     ecut=    25.00 Ry     beta=0.60
     Davidson diagonalization with overlap
     ethr =  5.59E-10,  avg # of iterations =  3.0

     negative rho (up, down):  0.278E-03 0.000E+00

     total cpu time spent up to now is      193.8 secs

     total energy              =    -485.33910676 Ry
     Harris-Foulkes estimate   =    -485.33910670 Ry
     estimated scf accuracy    <       0.00000011 Ry

     iteration # 10     ecut=    25.00 Ry     beta=0.60
     Davidson diagonalization with overlap
     ethr =  2.47E-10,  avg # of iterations =  2.0

     negative rho (up, down):  0.245E-03 0.000E+00

     total cpu time spent up to now is      196.4 secs

     End of self-consistent calculation

          k = 0.0000 0.0000 0.0000 ( 16879 PWs)   bands (ev):

    -7.5601  -6.4227  -6.1781  -6.0282  -5.7908  -5.6064  -5.3126  -5.2279
    -5.0514  -4.8942  -4.8667  -4.7861  -4.7295  -4.6877  -4.6311  -4.5663
    -4.1750  -4.1445  -4.1381  -4.0645  -4.0023  -3.9063  -2.9862  -1.8149
    -1.2160  -0.4210

          k = 0.0000 0.0000-0.5000 ( 16896 PWs)   bands (ev):

    -7.5600  -6.4228  -6.1781  -6.0282  -5.7906  -5.6063  -5.3125  -5.2279
    -5.0513  -4.8942  -4.8667  -4.7861  -4.7295  -4.6877  -4.6311  -4.5664
    -4.1747  -4.1445  -4.1381  -4.0645  -4.0023  -3.9061  -3.0073  -1.8077
    -1.2076  -0.3298

          k = 0.0000-0.5000-0.5000 ( 16844 PWs)   bands (ev):

    -7.5598  -6.4227  -6.1780  -6.0281  -5.7905  -5.6063  -5.3122  -5.2279
    -5.0512  -4.8943  -4.8666  -4.7860  -4.7295  -4.6877  -4.6311  -4.5667
    -4.1757  -4.1446  -4.1380  -4.0645  -4.0022  -3.9101  -3.0071  -1.7898
    -1.2201  -0.3670

          k =-0.5000-0.5000-0.5000 ( 16944 PWs)   bands (ev):

    -7.5597  -6.4228  -6.1780  -6.0282  -5.7904  -5.6064  -5.3120  -5.2279
    -5.0514  -4.8943  -4.8666  -4.7860  -4.7294  -4.6877  -4.6311  -4.5669
    -4.1762  -4.1446  -4.1380  -4.0649  -4.0023  -3.9120  -3.0052  -1.7902
    -1.2521  -0.3706

          k =-0.5000 0.0000 0.0000 ( 16896 PWs)   bands (ev):

    -7.5600  -6.4227  -6.1781  -6.0282  -5.7907  -5.6064  -5.3123  -5.2279
    -5.0515  -4.8942  -4.8666  -4.7861  -4.7294  -4.6877  -4.6312  -4.5666
    -4.1754  -4.1445  -4.1381  -4.0648  -4.0024  -3.9086  -2.9845  -1.8032
    -1.2518  -0.4025

          k = 0.0000-0.5000 0.0000 ( 16896 PWs)   bands (ev):

    -7.5600  -6.4227  -6.1780  -6.0282  -5.7907  -5.6064  -5.3123  -5.2279
    -5.0513  -4.8943  -4.8667  -4.7861  -4.7295  -4.6877  -4.6311  -4.5667
    -4.1760  -4.1446  -4.1380  -4.0645  -4.0023  -3.9104  -2.9865  -1.7945
    -1.2302  -0.4233

          k =-0.5000 0.0000 0.5000 ( 16844 PWs)   bands (ev):

    -7.5599  -6.4227  -6.1780  -6.0282  -5.7905  -5.6063  -5.3123  -5.2278
    -5.0514  -4.8942  -4.8666  -4.7860  -4.7294  -4.6877  -4.6311  -4.5665
    -4.1752  -4.1444  -4.1381  -4.0648  -4.0023  -3.9083  -3.0052  -1.7978
    -1.2423  -0.3563

          k =-0.5000 0.5000 0.0000 ( 16844 PWs)   bands (ev):

    -7.5598  -6.4227  -6.1780  -6.0282  -5.7906  -5.6064  -5.3121  -5.2279
    -5.0514  -4.8943  -4.8666  -4.7860  -4.7294  -4.6877  -4.6311  -4.5668
    -4.1764  -4.1445  -4.1380  -4.0648  -4.0023  -3.9123  -2.9849  -1.7944
    -1.2624  -0.4001

     the Fermi energy is    -3.0411 ev

!    total energy              =    -485.33910689 Ry
     Harris-Foulkes estimate   =    -485.33910677 Ry
     estimated scf accuracy    <       0.00000002 Ry

     The total energy is the sum of the following terms:

     one-electron contribution =    -782.37416930 Ry
     hartree contribution      =     434.39255215 Ry
     xc contribution           =    -171.03346379 Ry
     ewald contribution        =      33.67597406 Ry
     smearing contrib. (-TS)   =       0.00000000 Ry

     charge density inside the Wigner-Seitz cell:   44.00000000

     reference position (x0):         3.25366170    2.98019818    3.57777084 bohr

     Dipole moments (with respect to x0):
     Elect   0.4718   0.4903   0.3400 au (Ha),   1.1991   1.2463   0.8642 Debye
     Ionic   0.0000  -0.0000   0.0000 au (Ha),   0.0000  -0.0000   0.0000 Debye
     Total   0.4718   0.4903   0.3400 au (Ha),   1.1991   1.2463   0.8642 Debye

     Electrons quadrupole moment       -587.91852966 a.u. (Ha)
          Ions quadrupole moment        493.38702348 a.u. (Ha)
         Total quadrupole moment        -94.53150618 a.u. (Ha)

     *********    MAKOV-PAYNE CORRECTION    *********

     Makov-Payne correction with Madelung constant =   2.8373

     Makov-Payne correction     0.00000000 Ry =  0.000 eV (1st order, 1/a0)
                                0.00030294 Ry =  0.004 eV (2nd order, 1/a0^3)
                                0.00030294 Ry =  0.004 eV (total)

!    Total+Makov-Payne energy  =    -485.33880395 Ry

     convergence has been achieved in  10 iterations

     Forces acting on atoms (Ry/au):


     negative rho (up, down):  0.245E-03 0.000E+00
     atom    1 type  1   force =    -0.02551183   -0.02435444   -0.03917148
     atom    2 type  1   force =     0.02685962    0.02884939    0.00282319
     atom    3 type  1   force =    -0.02071187   -0.02469311    0.01630421
     atom    4 type  1   force =     0.01936408    0.02019816    0.02004408

     Total force =     0.063647     Total SCF correction =     0.000950

     number of scf cycles    =   4
     number of bfgs steps    =   3

     energy   old            =    -485.3051032743 Ry
     energy   new            =    -485.3391068919 Ry

     CASE: energy  _new < energy  _old

     new trust radius        =       0.1361451114 bohr
     new conv_thr            =       0.0000000962 Ry


ATOMIC_POSITIONS (bohr)
Cu       2.600000040   2.600000040   2.600000040    0   0   0
Cu       5.914245334   5.228180537   1.721184467
Cu       0.452376209  -0.621945775   4.274982774
Cu       4.114327198   4.765849212   5.845452817


     Check: negative starting charge=   -0.000260
     NEW-OLD atomic charge density approx. for the potential
     Check: negative starting charge=   -0.000251

     negative rho (up, down):  0.324E-03 0.000E+00

     total cpu time spent up to now is      198.6 secs

     Self-consistent Calculation

     iteration #  1     ecut=    25.00 Ry     beta=0.60
     Davidson diagonalization with overlap
     ethr =  1.00E-06,  avg # of iterations =  6.0

     negative rho (up, down):  0.176E-03 0.000E+00

     total cpu time spent up to now is      205.8 secs

     total energy              =    -485.34722004 Ry
     Harris-Foulkes estimate   =    -485.34909888 Ry
     estimated scf accuracy    <       0.00729277 Ry

     iteration #  2     ecut=    25.00 Ry     beta=0.60
     Davidson diagonalization with overlap
     ethr =  1.66E-05,  avg # of iterations =  1.5

     negative rho (up, down):  0.263E-03 0.000E+00

     total cpu time spent up to now is      209.9 secs

     total energy              =    -485.34756309 Ry
     Harris-Foulkes estimate   =    -485.34795620 Ry
     estimated scf accuracy    <       0.00122504 Ry

     iteration #  3     ecut=    25.00 Ry     beta=0.60
     Davidson diagonalization with overlap
     ethr =  2.78E-06,  avg # of iterations =  2.0

     negative rho (up, down):  0.344E-03 0.000E+00

     total cpu time spent up to now is      214.5 secs

     total energy              =    -485.34772904 Ry
     Harris-Foulkes estimate   =    -485.34780049 Ry
     estimated scf accuracy    <       0.00023749 Ry

     iteration #  4     ecut=    25.00 Ry     beta=0.60
     Davidson diagonalization with overlap
     ethr =  5.40E-07,  avg # of iterations =  2.0

     negative rho (up, down):  0.336E-03 0.000E+00

     total cpu time spent up to now is      219.0 secs

     total energy              =    -485.34777128 Ry
     Harris-Foulkes estimate   =    -485.34777334 Ry
     estimated scf accuracy    <       0.00000914 Ry

     iteration #  5     ecut=    25.00 Ry     beta=0.60
     Davidson diagonalization with overlap
     ethr =  2.08E-08,  avg # of iterations =  3.0

     negative rho (up, down):  0.328E-03 0.000E+00

     total cpu time spent up to now is      224.0 secs

     total energy              =    -485.34777272 Ry
     Harris-Foulkes estimate   =    -485.34777391 Ry
     estimated scf accuracy    <       0.00000427 Ry

     iteration #  6     ecut=    25.00 Ry     beta=0.60
     Davidson diagonalization with overlap
     ethr =  9.71E-09,  avg # of iterations =  2.0

     negative rho (up, down):  0.308E-03 0.000E+00

     total cpu time spent up to now is      228.3 secs

     total energy              =    -485.34777304 Ry
     Harris-Foulkes estimate   =    -485.34777306 Ry
     estimated scf accuracy    <       0.00000070 Ry

     iteration #  7     ecut=    25.00 Ry     beta=0.60
     Davidson diagonalization with overlap
     ethr =  1.59E-09,  avg # of iterations =  3.0

     negative rho (up, down):  0.293E-03 0.000E+00

     total cpu time spent up to now is      233.2 secs

     total energy              =    -485.34777325 Ry
     Harris-Foulkes estimate   =    -485.34777321 Ry
     estimated scf accuracy    <       0.00000020 Ry

     iteration #  8     ecut=    25.00 Ry     beta=0.60
     Davidson diagonalization with overlap
     ethr =  4.54E-10,  avg # of iterations =  1.1

     negative rho (up, down):  0.258E-03 0.000E+00

     total cpu time spent up to now is      238.0 secs

     total energy              =    -485.34777339 Ry
     Harris-Foulkes estimate   =    -485.34777326 Ry
     estimated scf accuracy    <       0.00000010 Ry

     iteration #  9     ecut=    25.00 Ry     beta=0.60
     Davidson diagonalization with overlap
     ethr =  2.23E-10,  avg # of iterations =  2.1

     negative rho (up, down):  0.229E-03 0.000E+00

     total cpu time spent up to now is      240.7 secs

     End of self-consistent calculation

          k = 0.0000 0.0000 0.0000 ( 16879 PWs)   bands (ev):

    -7.3824  -6.2201  -6.0084  -5.8641  -5.6980  -5.4680  -5.2266  -5.1696
    -4.9785  -4.8487  -4.8195  -4.7631  -4.7142  -4.6818  -4.6296  -4.5562
    -4.1546  -4.0836  -4.0719  -4.0501  -4.0087  -3.8852  -3.0082  -1.8758
    -1.1868  -0.4523

          k = 0.0000 0.0000-0.5000 ( 16896 PWs)   bands (ev):

    -7.3822  -6.2201  -6.0083  -5.8641  -5.6978  -5.4680  -5.2265  -5.1695
    -4.9784  -4.8486  -4.8195  -4.7630  -4.7142  -4.6818  -4.6296  -4.5562
    -4.1543  -4.0837  -4.0719  -4.0501  -4.0086  -3.8849  -3.0298  -1.8691
    -1.1786  -0.3475

          k = 0.0000-0.5000-0.5000 ( 16844 PWs)   bands (ev):

    -7.3820  -6.2201  -6.0082  -5.8641  -5.6977  -5.4680  -5.2263  -5.1694
    -4.9784  -4.8488  -4.8194  -4.7630  -4.7142  -4.6818  -4.6295  -4.5566
    -4.1555  -4.0839  -4.0718  -4.0502  -4.0083  -3.8890  -3.0295  -1.8493
    -1.1968  -0.3858

          k =-0.5000-0.5000-0.5000 ( 16944 PWs)   bands (ev):

    -7.3819  -6.2201  -6.0082  -5.8642  -5.6976  -5.4680  -5.2261  -5.1694
    -4.9785  -4.8488  -4.8195  -4.7629  -4.7141  -4.6819  -4.6295  -4.5568
    -4.1561  -4.0840  -4.0718  -4.0505  -4.0083  -3.8909  -3.0276  -1.8488
    -1.2334  -0.3874

          k =-0.5000 0.0000 0.0000 ( 16896 PWs)   bands (ev):

    -7.3822  -6.2200  -6.0083  -5.8642  -5.6980  -5.4680  -5.2263  -5.1695
    -4.9786  -4.8487  -4.8195  -4.7630  -4.7141  -4.6819  -4.6296  -4.5565
    -4.1552  -4.0837  -4.0719  -4.0503  -4.0087  -3.8875  -3.0065  -1.8632
    -1.2280  -0.4334

          k = 0.0000-0.5000 0.0000 ( 16896 PWs)   bands (ev):

    -7.3822  -6.2201  -6.0083  -5.8642  -5.6979  -5.4680  -5.2263  -5.1695
    -4.9785  -4.8488  -4.8195  -4.7631  -4.7143  -4.6818  -4.6296  -4.5566
    -4.1558  -4.0839  -4.0718  -4.0502  -4.0084  -3.8894  -3.0084  -1.8536
    -1.2071  -0.4552

          k =-0.5000 0.0000 0.5000 ( 16844 PWs)   bands (ev):

    -7.3820  -6.2200  -6.0083  -5.8641  -5.6977  -5.4680  -5.2263  -5.1695
    -4.9785  -4.8487  -4.8194  -4.7629  -4.7141  -4.6818  -4.6296  -4.5564
    -4.1548  -4.0837  -4.0719  -4.0503  -4.0086  -3.8872  -3.0277  -1.8582
    -1.2183  -0.3724

          k =-0.5000 0.5000 0.0000 ( 16844 PWs)   bands (ev):

    -7.3820  -6.2200  -6.0082  -5.8641  -5.6979  -5.4680  -5.2261  -5.1694
    -4.9786  -4.8488  -4.8194  -4.7629  -4.7141  -4.6818  -4.6295  -4.5568
    -4.1564  -4.0839  -4.0717  -4.0504  -4.0083  -3.8913  -3.0069  -1.8526
    -1.2441  -0.4310

     the Fermi energy is    -3.8649 ev

!    total energy              =    -485.34777351 Ry
     Harris-Foulkes estimate   =    -485.34777341 Ry
     estimated scf accuracy    <       0.00000002 Ry

     The total energy is the sum of the following terms:

     one-electron contribution =    -767.93812311 Ry
     hartree contribution      =     427.25426439 Ry
     xc contribution           =    -170.99338459 Ry
     ewald contribution        =      26.32946980 Ry
     smearing contrib. (-TS)   =       0.00000000 Ry

     charge density inside the Wigner-Seitz cell:   44.00000000

     reference position (x0):         3.27023720    2.99302100    3.61040502 bohr

     Dipole moments (with respect to x0):
     Elect   0.4999   0.5315   0.3268 au (Ha),   1.2705   1.3509   0.8306 Debye
     Ionic   0.0000   0.0000  -0.0000 au (Ha),   0.0000   0.0000  -0.0000 Debye
     Total   0.4999   0.5315   0.3268 au (Ha),   1.2705   1.3509   0.8306 Debye

     Electrons quadrupole moment       -616.79743111 a.u. (Ha)
          Ions quadrupole moment        522.29439239 a.u. (Ha)
         Total quadrupole moment        -94.50303872 a.u. (Ha)

     *********    MAKOV-PAYNE CORRECTION    *********

     Makov-Payne correction with Madelung constant =   2.8373

     Makov-Payne correction     0.00000000 Ry =  0.000 eV (1st order, 1/a0)
                                0.00033466 Ry =  0.005 eV (2nd order, 1/a0^3)
                                0.00033466 Ry =  0.005 eV (total)

!    Total+Makov-Payne energy  =    -485.34743885 Ry

     convergence has been achieved in   9 iterations

     Forces acting on atoms (Ry/au):


     negative rho (up, down):  0.229E-03 0.000E+00
     atom    1 type  1   force =    -0.01782205   -0.02304497   -0.01504263
     atom    2 type  1   force =     0.00936276    0.01626565    0.01351049
     atom    3 type  1   force =    -0.00638127   -0.00352692    0.00480818
     atom    4 type  1   force =     0.01484055    0.01030624   -0.00327605

     Total force =     0.030793     Total SCF correction =     0.000577

     number of scf cycles    =   5
     number of bfgs steps    =   4

     energy   old            =    -485.3391068919 Ry
     energy   new            =    -485.3477735097 Ry

     CASE: energy  _new < energy  _old

     new trust radius        =       0.0767958388 bohr
     new conv_thr            =       0.0000000542 Ry


ATOMIC_POSITIONS (bohr)
Cu       2.600000040   2.600000040   2.600000040    0   0   0
Cu       5.962599935   5.285377709   1.738152582
Cu       0.411436765  -0.669117525   4.306870198
Cu       4.157161602   4.805892615   5.872261607


     Check: negative starting charge=   -0.000251
     NEW-OLD atomic charge density approx. for the potential
     Check: negative starting charge=   -0.000246

     negative rho (up, down):  0.257E-03 0.000E+00

     total cpu time spent up to now is      242.9 secs

     Self-consistent Calculation

     iteration #  1     ecut=    25.00 Ry     beta=0.60
     Davidson diagonalization with overlap
     ethr =  1.00E-06,  avg # of iterations =  5.0

     negative rho (up, down):  0.185E-03 0.000E+00

     total cpu time spent up to now is      249.5 secs

     total energy              =    -485.34978640 Ry
     Harris-Foulkes estimate   =    -485.35024777 Ry
     estimated scf accuracy    <       0.00183765 Ry

     iteration #  2     ecut=    25.00 Ry     beta=0.60
     Davidson diagonalization with overlap
     ethr =  4.18E-06,  avg # of iterations =  2.0

     negative rho (up, down):  0.238E-03 0.000E+00

     total cpu time spent up to now is      253.8 secs

     total energy              =    -485.34986223 Ry
     Harris-Foulkes estimate   =    -485.34996395 Ry
     estimated scf accuracy    <       0.00033212 Ry

     iteration #  3     ecut=    25.00 Ry     beta=0.60
     Davidson diagonalization with overlap
     ethr =  7.55E-07,  avg # of iterations =  2.0

     negative rho (up, down):  0.283E-03 0.000E+00

     total cpu time spent up to now is      258.5 secs

     total energy              =    -485.34988588 Ry
     Harris-Foulkes estimate   =    -485.34991423 Ry
     estimated scf accuracy    <       0.00008828 Ry

     iteration #  4     ecut=    25.00 Ry     beta=0.60
     Davidson diagonalization with overlap
     ethr =  2.01E-07,  avg # of iterations =  2.0

     negative rho (up, down):  0.279E-03 0.000E+00

     total cpu time spent up to now is      263.0 secs

     total energy              =    -485.34990421 Ry
     Harris-Foulkes estimate   =    -485.34990530 Ry
     estimated scf accuracy    <       0.00000372 Ry

     iteration #  5     ecut=    25.00 Ry     beta=0.60
     Davidson diagonalization with overlap
     ethr =  8.46E-09,  avg # of iterations =  3.0

     negative rho (up, down):  0.275E-03 0.000E+00

     total cpu time spent up to now is      268.3 secs

     total energy              =    -485.34990518 Ry
     Harris-Foulkes estimate   =    -485.34990551 Ry
     estimated scf accuracy    <       0.00000134 Ry

     iteration #  6     ecut=    25.00 Ry     beta=0.60
     Davidson diagonalization with overlap
     ethr =  3.06E-09,  avg # of iterations =  1.0

     negative rho (up, down):  0.265E-03 0.000E+00

     total cpu time spent up to now is      272.4 secs

     total energy              =    -485.34990520 Ry
     Harris-Foulkes estimate   =    -485.34990525 Ry
     estimated scf accuracy    <       0.00000036 Ry

     iteration #  7     ecut=    25.00 Ry     beta=0.60
     Davidson diagonalization with overlap
     ethr =  8.20E-10,  avg # of iterations =  2.0

     negative rho (up, down):  0.260E-03 0.000E+00

     total cpu time spent up to now is      276.6 secs

     total energy              =    -485.34990528 Ry
     Harris-Foulkes estimate   =    -485.34990526 Ry
     estimated scf accuracy    <       0.00000007 Ry

     iteration #  8     ecut=    25.00 Ry     beta=0.60
     Davidson diagonalization with overlap
     ethr =  1.59E-10,  avg # of iterations =  2.0

     negative rho (up, down):  0.225E-03 0.000E+00

     total cpu time spent up to now is      279.4 secs

     End of self-consistent calculation

          k = 0.0000 0.0000 0.0000 ( 16879 PWs)   bands (ev):

    -7.3017  -6.1173  -5.9304  -5.7910  -5.6727  -5.3977  -5.1955  -5.1473
    -4.9461  -4.8345  -4.7997  -4.7518  -4.7086  -4.6784  -4.6285  -4.5520
    -4.1447  -4.0581  -4.0370  -4.0317  -3.9995  -3.8719  -3.0110  -1.9121
    -1.1730  -0.4627

          k = 0.0000 0.0000-0.5000 ( 16896 PWs)   bands (ev):

    -7.3015  -6.1173  -5.9304  -5.7910  -5.6725  -5.3977  -5.1955  -5.1472
    -4.9460  -4.8345  -4.7997  -4.7518  -4.7085  -4.6784  -4.6285  -4.5520
    -4.1444  -4.0582  -4.0370  -4.0317  -3.9994  -3.8716  -3.0328  -1.9058
    -1.1649  -0.3557

          k = 0.0000-0.5000-0.5000 ( 16844 PWs)   bands (ev):

    -7.3013  -6.1173  -5.9303  -5.7909  -5.6724  -5.3977  -5.1954  -5.1470
    -4.9459  -4.8346  -4.7997  -4.7517  -4.7085  -4.6784  -4.6284  -4.5523
    -4.1459  -4.0586  -4.0368  -4.0317  -3.9990  -3.8757  -3.0325  -1.8853
    -1.1860  -0.3950

          k =-0.5000-0.5000-0.5000 ( 16944 PWs)   bands (ev):

    -7.3012  -6.1173  -5.9303  -5.7910  -5.6723  -5.3977  -5.1952  -5.1469
    -4.9461  -4.8347  -4.7997  -4.7517  -4.7084  -4.6785  -4.6284  -4.5526
    -4.1466  -4.0587  -4.0369  -4.0318  -3.9991  -3.8776  -3.0306  -1.8845
    -1.2248  -0.3957

          k =-0.5000 0.0000 0.0000 ( 16896 PWs)   bands (ev):

    -7.3016  -6.1173  -5.9304  -5.7910  -5.6727  -5.3977  -5.1954  -5.1472
    -4.9462  -4.8346  -4.7997  -4.7518  -4.7084  -4.6785  -4.6285  -4.5522
    -4.1455  -4.0582  -4.0370  -4.0318  -3.9995  -3.8743  -3.0094  -1.8992
    -1.2168  -0.4436

          k = 0.0000-0.5000 0.0000 ( 16896 PWs)   bands (ev):

    -7.3015  -6.1173  -5.9303  -5.7910  -5.6726  -5.3977  -5.1954  -5.1471
    -4.9461  -4.8347  -4.7997  -4.7518  -4.7086  -4.6784  -4.6285  -4.5524
    -4.1462  -4.0585  -4.0369  -4.0317  -3.9991  -3.8760  -3.0112  -1.8893
    -1.1964  -0.4664

          k =-0.5000 0.0000 0.5000 ( 16844 PWs)   bands (ev):

    -7.3014  -6.1173  -5.9304  -5.7910  -5.6724  -5.3977  -5.1953  -5.1471
    -4.9461  -4.8345  -4.7997  -4.7517  -4.7084  -4.6785  -4.6284  -4.5522
    -4.1451  -4.0584  -4.0370  -4.0318  -3.9994  -3.8739  -3.0307  -1.8946
    -1.2071  -0.3799

          k =-0.5000 0.5000 0.0000 ( 16844 PWs)   bands (ev):

    -7.3014  -6.1173  -5.9303  -5.7910  -5.6725  -5.3977  -5.1952  -5.1469
    -4.9462  -4.8347  -4.7997  -4.7517  -4.7084  -4.6785  -4.6284  -4.5526
    -4.1469  -4.0585  -4.0368  -4.0318  -3.9991  -3.8779  -3.0096  -1.8881
    -1.2357  -0.4411

     the Fermi energy is    -3.8287 ev

!    total energy              =    -485.34990540 Ry
     Harris-Foulkes estimate   =    -485.34990528 Ry
     estimated scf accuracy    <       0.00000003 Ry

     The total energy is the sum of the following terms:

     one-electron contribution =    -761.07296785 Ry
     hartree contribution      =     423.85865853 Ry
     xc contribution           =    -170.97728921 Ry
     ewald contribution        =      22.84169314 Ry
     smearing contrib. (-TS)   =       0.00000000 Ry

     charge density inside the Wigner-Seitz cell:   44.00000000

     reference position (x0):         3.28279959    3.00553821    3.62932111 bohr

     Dipole moments (with respect to x0):
     Elect   0.5160   0.5534   0.3167 au (Ha),   1.3115   1.4067   0.8049 Debye
     Ionic  -0.0000   0.0000   0.0000 au (Ha),  -0.0000   0.0000   0.0000 Debye
     Total   0.5160   0.5534   0.3167 au (Ha),   1.3115   1.4067   0.8049 Debye

     Electrons quadrupole moment       -632.28971290 a.u. (Ha)
          Ions quadrupole moment        537.78069095 a.u. (Ha)
         Total quadrupole moment        -94.50902195 a.u. (Ha)

     *********    MAKOV-PAYNE CORRECTION    *********

     Makov-Payne correction with Madelung constant =   2.8373

     Makov-Payne correction     0.00000000 Ry =  0.000 eV (1st order, 1/a0)
                                0.00035230 Ry =  0.005 eV (2nd order, 1/a0^3)
                                0.00035230 Ry =  0.005 eV (total)

!    Total+Makov-Payne energy  =    -485.34955311 Ry

     convergence has been achieved in   8 iterations

     Forces acting on atoms (Ry/au):


     negative rho (up, down):  0.225E-03 0.000E+00
     atom    1 type  1   force =    -0.01377402   -0.02161388   -0.00459689
     atom    2 type  1   force =     0.00165598    0.01028288    0.01683709
     atom    3 type  1   force =    -0.00014213    0.00540746   -0.00017600
     atom    4 type  1   force =     0.01226018    0.00592355   -0.01206421

     Total force =     0.027426     Total SCF correction =     0.000816

     number of scf cycles    =   6
     number of bfgs steps    =   5

     energy   old            =    -485.3477735097 Ry
     energy   new            =    -485.3499054038 Ry

     CASE: energy  _new < energy  _old

     new trust radius        =       0.0636027903 bohr
     new conv_thr            =       0.0000000561 Ry


ATOMIC_POSITIONS (bohr)
Cu       2.600000040   2.600000040   2.600000040    0   0   0
Cu       5.994049245   5.332266547   1.767438973
Cu       0.386679530  -0.690828933   4.325714445
Cu       4.197412178   4.837345556   5.875496291


     Check: negative starting charge=   -0.000246
     NEW-OLD atomic charge density approx. for the potential
     Check: negative starting charge=   -0.000243

     negative rho (up, down):  0.260E-03 0.000E+00

     total cpu time spent up to now is      281.7 secs

     Self-consistent Calculation

     iteration #  1     ecut=    25.00 Ry     beta=0.60
     Davidson diagonalization with overlap
     ethr =  1.00E-06,  avg # of iterations =  5.0

     negative rho (up, down):  0.196E-03 0.000E+00

     total cpu time spent up to now is      288.1 secs

     total energy              =    -485.35114401 Ry
     Harris-Foulkes estimate   =    -485.35131056 Ry
     estimated scf accuracy    <       0.00067341 Ry

     iteration #  2     ecut=    25.00 Ry     beta=0.60
     Davidson diagonalization with overlap
     ethr =  1.53E-06,  avg # of iterations =  1.4

     negative rho (up, down):  0.227E-03 0.000E+00

     total cpu time spent up to now is      292.1 secs

     total energy              =    -485.35116149 Ry
     Harris-Foulkes estimate   =    -485.35120237 Ry
     estimated scf accuracy    <       0.00014590 Ry

     iteration #  3     ecut=    25.00 Ry     beta=0.60
     Davidson diagonalization with overlap
     ethr =  3.32E-07,  avg # of iterations =  2.0

     negative rho (up, down):  0.242E-03 0.000E+00

     total cpu time spent up to now is      296.5 secs

     total energy              =    -485.35117428 Ry
     Harris-Foulkes estimate   =    -485.35118305 Ry
     estimated scf accuracy    <       0.00002520 Ry

     iteration #  4     ecut=    25.00 Ry     beta=0.60
     Davidson diagonalization with overlap
     ethr =  5.73E-08,  avg # of iterations =  3.0

     negative rho (up, down):  0.244E-03 0.000E+00

     total cpu time spent up to now is      301.3 secs

     total energy              =    -485.35118046 Ry
     Harris-Foulkes estimate   =    -485.35118097 Ry
     estimated scf accuracy    <       0.00000244 Ry

     iteration #  5     ecut=    25.00 Ry     beta=0.60
     Davidson diagonalization with overlap
     ethr =  5.55E-09,  avg # of iterations =  2.0

     negative rho (up, down):  0.246E-03 0.000E+00

     total cpu time spent up to now is      306.5 secs

     total energy              =    -485.35118060 Ry
     Harris-Foulkes estimate   =    -485.35118079 Ry
     estimated scf accuracy    <       0.00000064 Ry

     iteration #  6     ecut=    25.00 Ry     beta=0.60
     Davidson diagonalization with overlap
     ethr =  1.45E-09,  avg # of iterations =  2.0

     negative rho (up, down):  0.243E-03 0.000E+00

     total cpu time spent up to now is      310.9 secs

     total energy              =    -485.35118067 Ry
     Harris-Foulkes estimate   =    -485.35118069 Ry
     estimated scf accuracy    <       0.00000013 Ry

     iteration #  7     ecut=    25.00 Ry     beta=0.60
     Davidson diagonalization with overlap
     ethr =  3.04E-10,  avg # of iterations =  2.0

     negative rho (up, down):  0.224E-03 0.000E+00

     total cpu time spent up to now is      313.7 secs

     End of self-consistent calculation

          k = 0.0000 0.0000 0.0000 ( 16879 PWs)   bands (ev):

    -7.2666  -6.0544  -5.8943  -5.7571  -5.6808  -5.3538  -5.1928  -5.1383
    -4.9316  -4.8346  -4.7900  -4.7453  -4.7083  -4.6755  -4.6269  -4.5504
    -4.1400  -4.0437  -4.0162  -4.0136  -3.9893  -3.8637  -3.0020  -1.9372
    -1.1673  -0.4628

          k = 0.0000 0.0000-0.5000 ( 16896 PWs)   bands (ev):

    -7.2664  -6.0544  -5.8943  -5.7570  -5.6805  -5.3538  -5.1928  -5.1382
    -4.9315  -4.8346  -4.7900  -4.7452  -4.7083  -4.6755  -4.6269  -4.5504
    -4.1396  -4.0439  -4.0161  -4.0136  -3.9893  -3.8634  -3.0239  -1.9314
    -1.1594  -0.3607

          k = 0.0000-0.5000-0.5000 ( 16844 PWs)   bands (ev):

    -7.2662  -6.0544  -5.8942  -5.7570  -5.6804  -5.3538  -5.1928  -5.1378
    -4.9315  -4.8348  -4.7900  -4.7452  -4.7083  -4.6755  -4.6269  -4.5508
    -4.1413  -4.0442  -4.0160  -4.0135  -3.9889  -3.8674  -3.0235  -1.9106
    -1.1824  -0.4009

          k =-0.5000-0.5000-0.5000 ( 16944 PWs)   bands (ev):

    -7.2660  -6.0544  -5.8943  -5.7571  -5.6803  -5.3538  -5.1927  -5.1377
    -4.9316  -4.8349  -4.7900  -4.7451  -4.7082  -4.6756  -4.6269  -4.5510
    -4.1421  -4.0443  -4.0161  -4.0135  -3.9889  -3.8693  -3.0215  -1.9095
    -1.2226  -0.4012

          k =-0.5000 0.0000 0.0000 ( 16896 PWs)   bands (ev):

    -7.2665  -6.0544  -5.8943  -5.7570  -5.6807  -5.3538  -5.1927  -5.1381
    -4.9317  -4.8347  -4.7900  -4.7452  -4.7082  -4.6756  -4.6269  -4.5506
    -4.1409  -4.0439  -4.0162  -4.0136  -3.9893  -3.8660  -3.0003  -1.9242
    -1.2128  -0.4434

          k = 0.0000-0.5000 0.0000 ( 16896 PWs)   bands (ev):

    -7.2664  -6.0544  -5.8943  -5.7571  -5.6807  -5.3538  -5.1928  -5.1380
    -4.9316  -4.8348  -4.7900  -4.7453  -4.7083  -4.6755  -4.6269  -4.5508
    -4.1418  -4.0440  -4.0161  -4.0136  -3.9889  -3.8678  -3.0020  -1.9142
    -1.1928  -0.4676

          k =-0.5000 0.0000 0.5000 ( 16844 PWs)   bands (ev):

    -7.2662  -6.0544  -5.8943  -5.7570  -5.6804  -5.3538  -5.1927  -5.1380
    -4.9316  -4.8346  -4.7900  -4.7451  -4.7082  -4.6756  -4.6269  -4.5506
    -4.1405  -4.0440  -4.0162  -4.0136  -3.9892  -3.8657  -3.0218  -1.9199
    -1.2031  -0.3847

          k =-0.5000 0.5000 0.0000 ( 16844 PWs)   bands (ev):

    -7.2662  -6.0543  -5.8942  -5.7570  -5.6806  -5.3538  -5.1927  -5.1378
    -4.9317  -4.8348  -4.7900  -4.7452  -4.7082  -4.6755  -4.6269  -4.5510
    -4.1425  -4.0441  -4.0160  -4.0135  -3.9889  -3.8696  -3.0005  -1.9128
    -1.2335  -0.4410

     the Fermi energy is    -3.8136 ev

!    total energy              =    -485.35118075 Ry
     Harris-Foulkes estimate   =    -485.35118070 Ry
     estimated scf accuracy    <       0.00000003 Ry

     The total energy is the sum of the following terms:

     one-electron contribution =    -757.74569821 Ry
     hartree contribution      =     422.21557461 Ry
     xc contribution           =    -170.97125177 Ry
     ewald contribution        =      21.15019463 Ry
     smearing contrib. (-TS)   =       0.00000000 Ry

     charge density inside the Wigner-Seitz cell:   44.00000000

     reference position (x0):         3.29453525    3.01969580    3.64216244 bohr

     Dipole moments (with respect to x0):
     Elect   0.5270   0.5664   0.3069 au (Ha),   1.3394   1.4396   0.7801 Debye
     Ionic  -0.0000  -0.0000  -0.0000 au (Ha),  -0.0000  -0.0000  -0.0000 Debye
     Total   0.5270   0.5664   0.3069 au (Ha),   1.3394   1.4396   0.7801 Debye

     Electrons quadrupole moment       -641.12574846 a.u. (Ha)
          Ions quadrupole moment        546.61478304 a.u. (Ha)
         Total quadrupole moment        -94.51096542 a.u. (Ha)

     *********    MAKOV-PAYNE CORRECTION    *********

     Makov-Payne correction with Madelung constant =   2.8373

     Makov-Payne correction     0.00000000 Ry =  0.000 eV (1st order, 1/a0)
                                0.00036269 Ry =  0.005 eV (2nd order, 1/a0^3)
                                0.00036269 Ry =  0.005 eV (total)

!    Total+Makov-Payne energy  =    -485.35081807 Ry

     convergence has been achieved in   7 iterations

     Forces acting on atoms (Ry/au):


     negative rho (up, down):  0.224E-03 0.000E+00
     atom    1 type  1   force =    -0.01147049   -0.02022022    0.00023351
     atom    2 type  1   force =    -0.00123081    0.00731261    0.01629847
     atom    3 type  1   force =     0.00247477    0.00901589   -0.00256237
     atom    4 type  1   force =     0.01022654    0.00389172   -0.01396961

     Total force =     0.027009     Total SCF correction =     0.000290

     number of scf cycles    =   7
     number of bfgs steps    =   6

     energy   old            =    -485.3499054038 Ry
     energy   new            =    -485.3511807545 Ry

     CASE: energy  _new < energy  _old

     new trust radius        =       0.0954041855 bohr
     new conv_thr            =       0.0000000543 Ry


ATOMIC_POSITIONS (bohr)
Cu       2.600000040   2.600000040   2.600000040    0   0   0
Cu       6.032006140   5.399929301   1.822963601
Cu       0.359693588  -0.705087022   4.345075205
Cu       4.259917710   4.881496085   5.863622771


     Check: negative starting charge=   -0.000243
     NEW-OLD atomic charge density approx. for the potential
     Check: negative starting charge=   -0.000242

     negative rho (up, down):  0.340E-03 0.000E+00

     total cpu time spent up to now is      316.0 secs

     Self-consistent Calculation

     iteration #  1     ecut=    25.00 Ry     beta=0.60
     Davidson diagonalization with overlap
     ethr =  1.00E-06,  avg # of iterations =  6.2

     negative rho (up, down):  0.207E-03 0.000E+00

     total cpu time spent up to now is      323.0 secs

     total energy              =    -485.35273746 Ry
     Harris-Foulkes estimate   =    -485.35300305 Ry
     estimated scf accuracy    <       0.00105138 Ry

     iteration #  2     ecut=    25.00 Ry     beta=0.60
     Davidson diagonalization with overlap
     ethr =  2.39E-06,  avg # of iterations =  1.0

     negative rho (up, down):  0.222E-03 0.000E+00

     total cpu time spent up to now is      327.0 secs

     total energy              =    -485.35274997 Ry
     Harris-Foulkes estimate   =    -485.35281996 Ry
     estimated scf accuracy    <       0.00025452 Ry

     iteration #  3     ecut=    25.00 Ry     beta=0.60
     Davidson diagonalization with overlap
     ethr =  5.78E-07,  avg # of iterations =  2.0

     negative rho (up, down):  0.236E-03 0.000E+00

     total cpu time spent up to now is      331.3 secs

     total energy              =    -485.35277244 Ry
     Harris-Foulkes estimate   =    -485.35278509 Ry
     estimated scf accuracy    <       0.00003522 Ry

     iteration #  4     ecut=    25.00 Ry     beta=0.60
     Davidson diagonalization with overlap
     ethr =  8.00E-08,  avg # of iterations =  3.0

     negative rho (up, down):  0.236E-03 0.000E+00

     total cpu time spent up to now is      336.5 secs

     total energy              =    -485.35278215 Ry
     Harris-Foulkes estimate   =    -485.35278283 Ry
     estimated scf accuracy    <       0.00000367 Ry

     iteration #  5     ecut=    25.00 Ry     beta=0.60
     Davidson diagonalization with overlap
     ethr =  8.35E-09,  avg # of iterations =  2.0

     negative rho (up, down):  0.237E-03 0.000E+00

     total cpu time spent up to now is      340.9 secs

     total energy              =    -485.35278228 Ry
     Harris-Foulkes estimate   =    -485.35278257 Ry
     estimated scf accuracy    <       0.00000099 Ry

     iteration #  6     ecut=    25.00 Ry     beta=0.60
     Davidson diagonalization with overlap
     ethr =  2.26E-09,  avg # of iterations =  2.0

     negative rho (up, down):  0.237E-03 0.000E+00

     total cpu time spent up to now is      345.6 secs

     total energy              =    -485.35278239 Ry
     Harris-Foulkes estimate   =    -485.35278242 Ry
     estimated scf accuracy    <       0.00000019 Ry

     iteration #  7     ecut=    25.00 Ry     beta=0.60
     Davidson diagonalization with overlap
     ethr =  4.24E-10,  avg # of iterations =  2.0

     negative rho (up, down):  0.223E-03 0.000E+00

     total cpu time spent up to now is      348.3 secs

     End of self-consistent calculation

          k = 0.0000 0.0000 0.0000 ( 16879 PWs)   bands (ev):

    -7.2417  -5.9810  -5.8776  -5.7322  -5.7079  -5.3031  -5.2099  -5.1293
    -4.9224  -4.8427  -4.7802  -4.7351  -4.7096  -4.6690  -4.6217  -4.5480
    -4.1351  -4.0236  -3.9928  -3.9900  -3.9737  -3.8541  -2.9775  -1.9683
    -1.1634  -0.4547

          k = 0.0000 0.0000-0.5000 ( 16896 PWs)   bands (ev):

    -7.2414  -5.9811  -5.8776  -5.7321  -5.7077  -5.3031  -5.2099  -5.1292
    -4.9223  -4.8427  -4.7802  -4.7350  -4.7096  -4.6690  -4.6217  -4.5480
    -4.1347  -4.0238  -3.9927  -3.9900  -3.9737  -3.8539  -2.9997  -1.9631
    -1.1558  -0.3667

          k = 0.0000-0.5000-0.5000 ( 16844 PWs)   bands (ev):

    -7.2412  -5.9810  -5.8776  -5.7321  -5.7075  -5.3031  -5.2099  -5.1288
    -4.9222  -4.8429  -4.7802  -4.7350  -4.7095  -4.6690  -4.6217  -4.5485
    -4.1366  -4.0240  -3.9926  -3.9899  -3.9734  -3.8577  -2.9989  -1.9419
    -1.1812  -0.4082

          k =-0.5000-0.5000-0.5000 ( 16944 PWs)   bands (ev):

    -7.2410  -5.9810  -5.8777  -5.7321  -5.7074  -5.3031  -5.2099  -5.1286
    -4.9223  -4.8431  -4.7802  -4.7350  -4.7095  -4.6691  -4.6217  -4.5488
    -4.1375  -4.0242  -3.9927  -3.9899  -3.9734  -3.8595  -2.9970  -1.9406
    -1.2229  -0.4084

          k =-0.5000 0.0000 0.0000 ( 16896 PWs)   bands (ev):

    -7.2415  -5.9810  -5.8776  -5.7321  -5.7078  -5.3031  -5.2098  -5.1290
    -4.9224  -4.8429  -4.7802  -4.7351  -4.7094  -4.6690  -4.6217  -4.5483
    -4.1361  -4.0238  -3.9928  -3.9900  -3.9737  -3.8564  -2.9758  -1.9550
    -1.2107  -0.4354

          k = 0.0000-0.5000 0.0000 ( 16896 PWs)   bands (ev):

    -7.2414  -5.9810  -5.8776  -5.7322  -5.7077  -5.3031  -5.2099  -5.1289
    -4.9223  -4.8430  -4.7802  -4.7351  -4.7096  -4.6690  -4.6217  -4.5485
    -4.1371  -4.0239  -3.9927  -3.9899  -3.9734  -3.8581  -2.9773  -1.9451
    -1.1915  -0.4618

          k =-0.5000 0.0000 0.5000 ( 16844 PWs)   bands (ev):

    -7.2413  -5.9810  -5.8777  -5.7321  -5.7076  -5.3031  -5.2098  -5.1289
    -4.9223  -4.8428  -4.7802  -4.7349  -4.7094  -4.6690  -4.6217  -4.5483
    -4.1356  -4.0239  -3.9927  -3.9900  -3.9737  -3.8560  -2.9975  -1.9512
    -1.2011  -0.3908

          k =-0.5000 0.5000 0.0000 ( 16844 PWs)   bands (ev):

    -7.2413  -5.9810  -5.8776  -5.7321  -5.7076  -5.3031  -5.2099  -5.1287
    -4.9224  -4.8431  -4.7802  -4.7350  -4.7094  -4.6690  -4.6217  -4.5488
    -4.1380  -4.0239  -3.9927  -3.9898  -3.9734  -3.8599  -2.9758  -1.9435
    -1.2338  -0.4333

     the Fermi energy is    -3.8042 ev

!    total energy              =    -485.35278248 Ry
     Harris-Foulkes estimate   =    -485.35278242 Ry
     estimated scf accuracy    <       0.00000003 Ry

     The total energy is the sum of the following terms:

     one-electron contribution =    -755.02734527 Ry
     hartree contribution      =     420.87598996 Ry
     xc contribution           =    -170.96879302 Ry
     ewald contribution        =      19.76736584 Ry
     smearing contrib. (-TS)   =       0.00000000 Ry

     charge density inside the Wigner-Seitz cell:   44.00000000

     reference position (x0):         3.31290437    3.04408460    3.65791540 bohr

     Dipole moments (with respect to x0):
     Elect   0.5391   0.5789   0.2929 au (Ha),   1.3702   1.4714   0.7444 Debye
     Ionic   0.0000   0.0000  -0.0000 au (Ha),   0.0000   0.0000  -0.0000 Debye
     Total   0.5391   0.5789   0.2929 au (Ha),   1.3702   1.4714   0.7444 Debye

     Electrons quadrupole moment       -650.26790205 a.u. (Ha)
          Ions quadrupole moment        555.75504593 a.u. (Ha)
         Total quadrupole moment        -94.51285611 a.u. (Ha)

     *********    MAKOV-PAYNE CORRECTION    *********

     Makov-Payne correction with Madelung constant =   2.8373

     Makov-Payne correction     0.00000000 Ry =  0.000 eV (1st order, 1/a0)
                                0.00037255 Ry =  0.005 eV (2nd order, 1/a0^3)
                                0.00037255 Ry =  0.005 eV (total)

!    Total+Makov-Payne energy  =    -485.35240993 Ry

     convergence has been achieved in   7 iterations

     Forces acting on atoms (Ry/au):


     negative rho (up, down):  0.223E-03 0.000E+00
     atom    1 type  1   force =    -0.00829333   -0.01772758    0.00506592
     atom    2 type  1   force =    -0.00314361    0.00430672    0.01242029
     atom    3 type  1   force =     0.00481211    0.01195997   -0.00477305
     atom    4 type  1   force =     0.00662483    0.00146090   -0.01271316

     Total force =     0.024069     Total SCF correction =     0.000534

     number of scf cycles    =   8
     number of bfgs steps    =   7

     energy   old            =    -485.3511807545 Ry
     energy   new            =    -485.3527824800 Ry

[...]

     Electrons quadrupole moment       -649.73656163 a.u. (Ha)
          Ions quadrupole moment        555.44626018 a.u. (Ha)
         Total quadrupole moment        -94.29030145 a.u. (Ha)

     *********    MAKOV-PAYNE CORRECTION    *********

     Makov-Payne correction with Madelung constant =   2.8373

     Makov-Payne correction     0.00000000 Ry =  0.000 eV (1st order, 1/a0)
                                0.00033827 Ry =  0.005 eV (2nd order, 1/a0^3)
                                0.00033827 Ry =  0.005 eV (total)

!    Total+Makov-Payne energy  =    -485.35636089 Ry

     convergence has been achieved in   6 iterations

     Forces acting on atoms (Ry/au):


     negative rho (up, down):  0.222E-03 0.000E+00
     atom    1 type  1   force =     0.00029597    0.00013808   -0.00025811
     atom    2 type  1   force =    -0.00025935   -0.00017555    0.00049621
     atom    3 type  1   force =     0.00000887    0.00011775    0.00013598
     atom    4 type  1   force =    -0.00004549   -0.00008029   -0.00037409

     Total force =     0.000725     Total SCF correction =     0.000052

     number of scf cycles    =  30
     number of bfgs steps    =  29

     energy   old            =    -485.3566948906 Ry
     energy   new            =    -485.3566991629 Ry

     CASE: energy  _new < energy  _old

     new trust radius        =       0.0137509502 bohr
     new conv_thr            =       0.0000000033 Ry


ATOMIC_POSITIONS (bohr)
Cu       2.600000040   2.600000040   2.600000040    0   0   0
Cu       5.675320563   5.921949474   1.858346082
Cu      -0.080711713  -0.248437212   4.272738789
Cu       4.440608205   4.811847473   5.827858413


     Check: negative starting charge=   -0.000241
     NEW-OLD atomic charge density approx. for the potential
     Check: negative starting charge=   -0.000241

     negative rho (up, down):  0.230E-03 0.000E+00

     total cpu time spent up to now is     1069.1 secs

     Self-consistent Calculation

     iteration #  1     ecut=    25.00 Ry     beta=0.60
     Davidson diagonalization with overlap
     ethr =  1.00E-06,  avg # of iterations =  4.0

     Threshold (ethr) on eigenvalues was too large:
     Diagonalizing with lowered threshold

     Davidson diagonalization with overlap
     ethr =  1.72E-08,  avg # of iterations =  1.0

     negative rho (up, down):  0.225E-03 0.000E+00

     total cpu time spent up to now is     1076.6 secs

     total energy              =    -485.35670109 Ry
     Harris-Foulkes estimate   =    -485.35670264 Ry
     estimated scf accuracy    <       0.00000763 Ry

     iteration #  2     ecut=    25.00 Ry     beta=0.60
     Davidson diagonalization with overlap
     ethr =  1.73E-08,  avg # of iterations =  1.0

     negative rho (up, down):  0.222E-03 0.000E+00

     total cpu time spent up to now is     1081.1 secs

     total energy              =    -485.35670094 Ry
     Harris-Foulkes estimate   =    -485.35670151 Ry
     estimated scf accuracy    <       0.00000202 Ry

     iteration #  3     ecut=    25.00 Ry     beta=0.60
     Davidson diagonalization with overlap
     ethr =  4.58E-09,  avg # of iterations =  3.0

     negative rho (up, down):  0.222E-03 0.000E+00

     total cpu time spent up to now is     1085.8 secs

     total energy              =    -485.35670127 Ry
     Harris-Foulkes estimate   =    -485.35670132 Ry
     estimated scf accuracy    <       0.00000026 Ry

     iteration #  4     ecut=    25.00 Ry     beta=0.60
     Davidson diagonalization with overlap
     ethr =  5.94E-10,  avg # of iterations =  2.5

     negative rho (up, down):  0.222E-03 0.000E+00

     total cpu time spent up to now is     1090.3 secs

     total energy              =    -485.35670132 Ry
     Harris-Foulkes estimate   =    -485.35670132 Ry
     estimated scf accuracy    <       0.00000004 Ry

     iteration #  5     ecut=    25.00 Ry     beta=0.60
     Davidson diagonalization with overlap
     ethr =  8.47E-11,  avg # of iterations =  2.0

     negative rho (up, down):  0.222E-03 0.000E+00

     total cpu time spent up to now is     1094.9 secs

     total energy              =    -485.35670132 Ry
     Harris-Foulkes estimate   =    -485.35670132 Ry
     estimated scf accuracy    <       0.00000001 Ry

     iteration #  6     ecut=    25.00 Ry     beta=0.60
     Davidson diagonalization with overlap
     ethr =  2.32E-11,  avg # of iterations =  2.0

     negative rho (up, down):  0.222E-03 0.000E+00

     total cpu time spent up to now is     1097.6 secs

     End of self-consistent calculation

          k = 0.0000 0.0000 0.0000 ( 16879 PWs)   bands (ev):

    -7.2622  -5.9767  -5.9294  -5.7668  -5.7383  -5.2791  -5.2091  -5.1269
    -4.9815  -4.8813  -4.7698  -4.7082  -4.6920  -4.6390  -4.5894  -4.5796
    -4.1504  -4.0167  -4.0116  -3.9845  -3.9841  -3.8765  -2.9080  -1.9481
    -1.1738  -0.4276

          k = 0.0000 0.0000-0.5000 ( 16896 PWs)   bands (ev):

    -7.2620  -5.9767  -5.9294  -5.7666  -5.7383  -5.2791  -5.2090  -5.1268
    -4.9815  -4.8813  -4.7698  -4.7082  -4.6919  -4.6390  -4.5894  -4.5796
    -4.1499  -4.0167  -4.0115  -3.9845  -3.9841  -3.8763  -2.9319  -1.9423
    -1.1654  -0.3867

          k = 0.0000-0.5000-0.5000 ( 16844 PWs)   bands (ev):

    -7.2617  -5.9767  -5.9294  -5.7663  -5.7383  -5.2791  -5.2091  -5.1264
    -4.9815  -4.8815  -4.7697  -4.7081  -4.6918  -4.6390  -4.5893  -4.5802
    -4.1516  -4.0167  -4.0115  -3.9848  -3.9839  -3.8793  -2.9296  -1.9156
    -1.2166  -0.4211

          k =-0.5000-0.5000-0.5000 ( 16944 PWs)   bands (ev):

    -7.2616  -5.9767  -5.9294  -5.7662  -5.7383  -5.2791  -5.2091  -5.1261
    -4.9815  -4.8816  -4.7697  -4.7082  -4.6918  -4.6391  -4.5894  -4.5807
    -4.1526  -4.0167  -4.0115  -3.9849  -3.9838  -3.8809  -2.9276  -1.9092
    -1.2632  -0.4284

          k =-0.5000 0.0000 0.0000 ( 16896 PWs)   bands (ev):

    -7.2620  -5.9767  -5.9294  -5.7666  -5.7383  -5.2791  -5.2091  -5.1266
    -4.9815  -4.8814  -4.7698  -4.7082  -4.6919  -4.6390  -4.5894  -4.5801
    -4.1515  -4.0166  -4.0115  -3.9846  -3.9840  -3.8785  -2.9062  -1.9285
    -1.2295  -0.4212

          k = 0.0000-0.5000 0.0000 ( 16896 PWs)   bands (ev):

    -7.2620  -5.9767  -5.9294  -5.7666  -5.7383  -5.2791  -5.2091  -5.1266
    -4.9815  -4.8815  -4.7698  -4.7082  -4.6919  -4.6390  -4.5894  -4.5803
    -4.1521  -4.0167  -4.0115  -3.9847  -3.9839  -3.8795  -2.9061  -1.9193
    -1.2279  -0.4247

          k =-0.5000 0.0000 0.5000 ( 16844 PWs)   bands (ev):

    -7.2618  -5.9767  -5.9294  -5.7664  -5.7383  -5.2791  -5.2091  -5.1264
    -4.9815  -4.8814  -4.7697  -4.7081  -4.6918  -4.6390  -4.5893  -4.5801
    -4.1510  -4.0167  -4.0115  -3.9847  -3.9839  -3.8783  -2.9297  -1.9245
    -1.2179  -0.4141

          k =-0.5000 0.5000 0.0000 ( 16844 PWs)   bands (ev):

    -7.2618  -5.9767  -5.9294  -5.7664  -5.7383  -5.2791  -5.2091  -5.1262
    -4.9815  -4.8816  -4.7696  -4.7082  -4.6919  -4.6390  -4.5893  -4.5807
    -4.1532  -4.0166  -4.0115  -3.9849  -3.9837  -3.8812  -2.9046  -1.9125
    -1.2761  -0.4081

     the Fermi energy is    -3.8244 ev

!    total energy              =    -485.35670132 Ry
     Harris-Foulkes estimate   =    -485.35670132 Ry
     estimated scf accuracy    <          1.3E-09 Ry

     The total energy is the sum of the following terms:

     one-electron contribution =    -758.40498125 Ry
     hartree contribution      =     422.56438666 Ry
     xc contribution           =    -170.98563046 Ry
     ewald contribution        =      21.46952374 Ry
     smearing contrib. (-TS)   =       0.00000000 Ry

     charge density inside the Wigner-Seitz cell:   44.00000000

     reference position (x0):         3.15880427    3.27133994    3.63973583 bohr

     Dipole moments (with respect to x0):
     Elect   0.4958   0.5614   0.2933 au (Ha),   1.2601   1.4270   0.7454 Debye
     Ionic   0.0000   0.0000   0.0000 au (Ha),   0.0000   0.0000   0.0000 Debye
     Total   0.4958   0.5614   0.2933 au (Ha),   1.2601   1.4270   0.7454 Debye

     Electrons quadrupole moment       -649.39567421 a.u. (Ha)
          Ions quadrupole moment        555.10397262 a.u. (Ha)
         Total quadrupole moment        -94.29170159 a.u. (Ha)

     *********    MAKOV-PAYNE CORRECTION    *********

     Makov-Payne correction with Madelung constant =   2.8373

     Makov-Payne correction     0.00000000 Ry =  0.000 eV (1st order, 1/a0)
                                0.00033877 Ry =  0.005 eV (2nd order, 1/a0^3)
                                0.00033877 Ry =  0.005 eV (total)

!    Total+Makov-Payne energy  =    -485.35636255 Ry

     convergence has been achieved in   6 iterations

     Forces acting on atoms (Ry/au):


     negative rho (up, down):  0.222E-03 0.000E+00
     atom    1 type  1   force =     0.00012288    0.00004225   -0.00033943
     atom    2 type  1   force =    -0.00000193    0.00002497    0.00006834
     atom    3 type  1   force =     0.00000300    0.00005850    0.00016339
     atom    4 type  1   force =    -0.00012396   -0.00012573    0.00010770

     Total force =     0.000280     Total SCF correction =     0.000035
     SCF correction compared to forces is large: reduce conv_thr to get better values

     number of scf cycles    =  31
     number of bfgs steps    =  30

     energy   old            =    -485.3566991629 Ry
     energy   new            =    -485.3567013226 Ry

     CASE: energy  _new < energy  _old

     new trust radius        =       0.0061306656 bohr
     new conv_thr            =       0.0000000033 Ry


ATOMIC_POSITIONS (bohr)
Cu       2.600000040   2.600000040   2.600000040    0   0   0
Cu       5.670294078   5.925363861   1.858008189
Cu      -0.085430132  -0.244530451   4.272496289
Cu       4.441231487   4.810320449   5.828059168


     Check: negative starting charge=   -0.000241
     NEW-OLD atomic charge density approx. for the potential
     Check: negative starting charge=   -0.000241

     negative rho (up, down):  0.223E-03 0.000E+00

     total cpu time spent up to now is     1099.9 secs

     Self-consistent Calculation

     iteration #  1     ecut=    25.00 Ry     beta=0.60
     Davidson diagonalization with overlap
     ethr =  1.00E-06,  avg # of iterations =  4.0

     Threshold (ethr) on eigenvalues was too large:
     Diagonalizing with lowered threshold

     Davidson diagonalization with overlap
     ethr =  3.23E-09,  avg # of iterations =  3.0

     negative rho (up, down):  0.223E-03 0.000E+00

     total cpu time spent up to now is     1107.5 secs

     total energy              =    -485.35670146 Ry
     Harris-Foulkes estimate   =    -485.35670169 Ry
     estimated scf accuracy    <       0.00000125 Ry

     iteration #  2     ecut=    25.00 Ry     beta=0.60
     Davidson diagonalization with overlap
     ethr =  2.84E-09,  avg # of iterations =  1.0

     negative rho (up, down):  0.223E-03 0.000E+00

     total cpu time spent up to now is     1112.6 secs

     total energy              =    -485.35670139 Ry
     Harris-Foulkes estimate   =    -485.35670150 Ry
     estimated scf accuracy    <       0.00000035 Ry

     iteration #  3     ecut=    25.00 Ry     beta=0.60
     Davidson diagonalization with overlap
     ethr =  7.95E-10,  avg # of iterations =  3.0

     negative rho (up, down):  0.223E-03 0.000E+00

     total cpu time spent up to now is     1117.7 secs

     total energy              =    -485.35670146 Ry
     Harris-Foulkes estimate   =    -485.35670146 Ry
     estimated scf accuracy    <       0.00000002 Ry

     iteration #  4     ecut=    25.00 Ry     beta=0.60
     Davidson diagonalization with overlap
     ethr =  4.21E-11,  avg # of iterations =  2.2

     negative rho (up, down):  0.222E-03 0.000E+00

     total cpu time spent up to now is     1122.1 secs

     total energy              =    -485.35670147 Ry
     Harris-Foulkes estimate   =    -485.35670146 Ry
     estimated scf accuracy    <          5.9E-09 Ry

     iteration #  5     ecut=    25.00 Ry     beta=0.60
     Davidson diagonalization with overlap
     ethr =  1.35E-11,  avg # of iterations =  2.0

     negative rho (up, down):  0.222E-03 0.000E+00

     total cpu time spent up to now is     1124.6 secs

     End of self-consistent calculation

          k = 0.0000 0.0000 0.0000 ( 16879 PWs)   bands (ev):

    -7.2627  -5.9770  -5.9296  -5.7670  -5.7387  -5.2792  -5.2093  -5.1271
    -4.9813  -4.8814  -4.7698  -4.7084  -4.6921  -4.6391  -4.5895  -4.5796
    -4.1503  -4.0166  -4.0115  -3.9844  -3.9841  -3.8764  -2.9081  -1.9479
    -1.1739  -0.4277

          k = 0.0000 0.0000-0.5000 ( 16896 PWs)   bands (ev):

    -7.2624  -5.9770  -5.9296  -5.7668  -5.7387  -5.2792  -5.2093  -5.1270
    -4.9813  -4.8813  -4.7698  -4.7083  -4.6920  -4.6391  -4.5895  -4.5797
    -4.1499  -4.0166  -4.0114  -3.9845  -3.9841  -3.8762  -2.9321  -1.9421
    -1.1655  -0.3865

          k = 0.0000-0.5000-0.5000 ( 16844 PWs)   bands (ev):

    -7.2622  -5.9770  -5.9296  -5.7666  -5.7387  -5.2792  -5.2093  -5.1266
    -4.9813  -4.8815  -4.7697  -4.7083  -4.6920  -4.6391  -4.5894  -4.5803
    -4.1515  -4.0166  -4.0114  -3.9848  -3.9839  -3.8792  -2.9298  -1.9154
    -1.2168  -0.4209

          k =-0.5000-0.5000-0.5000 ( 16944 PWs)   bands (ev):

    -7.2621  -5.9771  -5.9296  -5.7664  -5.7387  -5.2792  -5.2093  -5.1263
    -4.9813  -4.8816  -4.7696  -4.7083  -4.6920  -4.6392  -4.5895  -4.5808
    -4.1526  -4.0166  -4.0114  -3.9850  -3.9838  -3.8809  -2.9278  -1.9090
    -1.2633  -0.4283

          k =-0.5000 0.0000 0.0000 ( 16896 PWs)   bands (ev):

    -7.2625  -5.9770  -5.9296  -5.7669  -5.7387  -5.2792  -5.2093  -5.1268
    -4.9813  -4.8815  -4.7697  -4.7084  -4.6921  -4.6391  -4.5895  -4.5802
    -4.1515  -4.0166  -4.0114  -3.9846  -3.9840  -3.8785  -2.9064  -1.9283
    -1.2296  -0.4213

          k = 0.0000-0.5000 0.0000 ( 16896 PWs)   bands (ev):

    -7.2624  -5.9770  -5.9296  -5.7668  -5.7387  -5.2792  -5.2093  -5.1267
    -4.9813  -4.8816  -4.7697  -4.7084  -4.6921  -4.6391  -4.5895  -4.5803
    -4.1521  -4.0166  -4.0114  -3.9847  -3.9839  -3.8795  -2.9063  -1.9191
    -1.2281  -0.4247

          k =-0.5000 0.0000 0.5000 ( 16844 PWs)   bands (ev):

    -7.2623  -5.9770  -5.9296  -5.7666  -5.7387  -5.2792  -5.2093  -5.1266
    -4.9813  -4.8814  -4.7697  -4.7083  -4.6920  -4.6391  -4.5894  -4.5801
    -4.1510  -4.0166  -4.0114  -3.9847  -3.9840  -3.8782  -2.9299  -1.9242
    -1.2179  -0.4140

          k =-0.5000 0.5000 0.0000 ( 16844 PWs)   bands (ev):

    -7.2623  -5.9770  -5.9296  -5.7666  -5.7387  -5.2792  -5.2093  -5.1264
    -4.9813  -4.8816  -4.7696  -4.7084  -4.6921  -4.6391  -4.5894  -4.5808
    -4.1531  -4.0165  -4.0114  -3.9849  -3.9837  -3.8811  -2.9047  -1.9123
    -1.2762  -0.4081

     the Fermi energy is    -3.8246 ev

!    total energy              =    -485.35670147 Ry
     Harris-Foulkes estimate   =    -485.35670147 Ry
     estimated scf accuracy    <          1.2E-09 Ry

     The total energy is the sum of the following terms:

     one-electron contribution =    -758.42616055 Ry
     hartree contribution      =     422.57472451 Ry
     xc contribution           =    -170.98562777 Ry
     ewald contribution        =      21.48036233 Ry
     smearing contrib. (-TS)   =       0.00000000 Ry

     charge density inside the Wigner-Seitz cell:   44.00000000

     reference position (x0):         3.15652387    3.27278847    3.63964092 bohr

     Dipole moments (with respect to x0):
     Elect   0.4956   0.5617   0.2934 au (Ha),   1.2596   1.4278   0.7456 Debye
     Ionic   0.0000   0.0000   0.0000 au (Ha),   0.0000   0.0000   0.0000 Debye
     Total   0.4956   0.5617   0.2934 au (Ha),   1.2596   1.4278   0.7456 Debye

     Electrons quadrupole moment       -649.33681262 a.u. (Ha)
          Ions quadrupole moment        555.04443487 a.u. (Ha)
         Total quadrupole moment        -94.29237774 a.u. (Ha)

     *********    MAKOV-PAYNE CORRECTION    *********

     Makov-Payne correction with Madelung constant =   2.8373

     Makov-Payne correction     0.00000000 Ry =  0.000 eV (1st order, 1/a0)
                                0.00033886 Ry =  0.005 eV (2nd order, 1/a0^3)
                                0.00033886 Ry =  0.005 eV (total)

!    Total+Makov-Payne energy  =    -485.35636261 Ry

     convergence has been achieved in   5 iterations

     Forces acting on atoms (Ry/au):


     negative rho (up, down):  0.222E-03 0.000E+00
     atom    1 type  1   force =     0.00002534   -0.00002361   -0.00035271
     atom    2 type  1   force =     0.00003156    0.00006341    0.00006315
     atom    3 type  1   force =     0.00003868    0.00007156    0.00014955
     atom    4 type  1   force =    -0.00009558   -0.00011136    0.00014001

     Total force =     0.000281     Total SCF correction =     0.000058
     SCF correction compared to forces is large: reduce conv_thr to get better values

     bfgs converged in  32 scf cycles and  31 bfgs steps
     (criteria: energy < 0.10E-05, force < 0.10E-02)

     End of BFGS Geometry Optimization

     Final energy   =    -485.3567014701 Ry
Begin final coordinates

ATOMIC_POSITIONS (bohr)
Cu       2.600000040   2.600000040   2.600000040    0   0   0
Cu       5.670294078   5.925363861   1.858008189
Cu      -0.085430132  -0.244530451   4.272496289
Cu       4.441231487   4.810320449   5.828059168
End final coordinates


 
     init_run     :      1.43s CPU      1.72s WALL (       1 calls)
     electrons    :    884.46s CPU   1052.34s WALL (      32 calls)
     update_pot   :      8.63s CPU      9.75s WALL (      31 calls)
     forces       :     45.18s CPU     46.25s WALL (      32 calls)

     Called by init_run:
     wfcinit      :      0.50s CPU      0.62s WALL (       1 calls)
     potinit      :      0.14s CPU      0.16s WALL (       1 calls)

     Called by electrons:
     c_bands      :    317.40s CPU    418.75s WALL (     238 calls)
     sum_band     :    140.88s CPU    151.00s WALL (     238 calls)
     v_of_rho     :     23.87s CPU     28.28s WALL (     260 calls)
     newd         :    110.51s CPU    128.38s WALL (     260 calls)
     mix_rho      :    291.80s CPU    325.24s WALL (     238 calls)

     Called by c_bands:
     init_us_2    :      3.66s CPU      3.77s WALL (    4072 calls)
     cegterg      :    291.49s CPU    392.73s WALL (    1904 calls)

     Called by *egterg:
     h_psi        :    199.87s CPU    233.63s WALL (    6782 calls)
     s_psi        :      9.66s CPU     10.62s WALL (    6782 calls)
     g_psi        :      2.77s CPU      2.81s WALL (    4870 calls)
     cdiaghg      :     39.94s CPU     91.60s WALL (    6446 calls)

     Called by h_psi:
     add_vuspsi   :      9.66s CPU     10.58s WALL (    6782 calls)

     General routines
     calbec       :     16.18s CPU     17.22s WALL (    8942 calls)
     fft          :     20.11s CPU     24.58s WALL (    4455 calls)
     ffts         :    127.57s CPU    159.78s WALL (  161086 calls)
     fftw         :    169.40s CPU    208.06s WALL (  320040 calls)
     interpolate  :      2.64s CPU      3.81s WALL (     498 calls)
 
     Parallel routines
     fft_scatter  :    187.37s CPU    229.63s WALL (  485581 calls)
 
     PWSCF        : 15m53.34s CPU    18m46.09s WALL

 
   This run was terminated on:  20:38:26   3Apr2015            

=------------------------------------------------------------------------------=
   JOB DONE.
=------------------------------------------------------------------------------=

